 DBCSR| CPU Multiplication driver                                           BLAS (U)
 DBCSR| Multrec recursion limit                                              512 (U)
 DBCSR| Multiplication stack size                                           1000 (D)
 DBCSR| Maximum elements for images                                    UNLIMITED (U)
 DBCSR| Multiplicative factor virtual images                                   1 (U)
 DBCSR| Use multiplication densification                                       T (D)
 DBCSR| Multiplication size stacks                                             3 (U)
 DBCSR| Use memory pool for CPU allocation                                     F (U)
 DBCSR| Number of 3D layers                                               SINGLE (U)
 DBCSR| Use MPI memory allocation                                              F (U)
 DBCSR| Use RMA algorithm                                                      F (U)
 DBCSR| Use Communication thread                                               T (U)
 DBCSR| Communication thread load                                             87 (D)
 DBCSR| MPI: My process id                                                     0
 DBCSR| MPI: Number of processes                                             192
 DBCSR| OMP: Current number of threads                                         1
 DBCSR| OMP: Max number of threads                                             1
 DBCSR| Split modifier for TAS multiplication algorithm                  1.0E+00 (U)


  **** **** ******  **  PROGRAM STARTED AT               2023-11-25 21:24:20.619
 ***** ** ***  *** **   PROGRAM STARTED ON                          i01r04c06s02
 **    ****   ******    PROGRAM STARTED BY                               di76zil
 ***** **    ** ** **   PROGRAM PROCESS ID                               2748577
  **** **  *******  **  PROGRAM STARTED IN /hppfs/work/pn36zo/di76zil/29_scalabl
                                           e_GW/11_GW+SOC/05_WS2_vacancy_10x10/2
                                           _SOC_window_20_eV

 CP2K| version string:                 CP2K version 2023.2 (Development Version)
 CP2K| source code revision number:                                  git:d3a2a48
 CP2K| cp2kflags: omp libint fftw3 parallel scalapack mkl                       
 CP2K| is freely available from                            https://www.cp2k.org/
 CP2K| Program compiled at                       Sat 25 Nov 2023 08:50:13 PM CET
 CP2K| Program compiled on                                               login04
 CP2K| Program compiled for                       supermuc_jw_intel19_2022_04_11
 CP2K| Data directory path    /hppfs/work/pn36zo/di76zil/23_compilation/64_GW+SO
 CP2K| Input file name                                                    GW.inp
 
 GLOBAL| Force Environment number                                              1
 GLOBAL| Basis set file name                                   BASIS_PERIODIC_GW
 GLOBAL| Potential file name                                  GTH_SOC_POTENTIALS
 GLOBAL| MM Potential file name                                     MM_POTENTIAL
 GLOBAL| Coordinate file name                                          struc.xyz
 GLOBAL| Method name                                                        CP2K
 GLOBAL| Project name                                                       MoS2
 GLOBAL| Run type                                                         ENERGY
 GLOBAL| FFT library                                                       FFTW3
 GLOBAL| Diagonalization library                                       ScaLAPACK
 GLOBAL| DGEMM library                                                      BLAS
 GLOBAL| Orthonormality check for eigenvectors                          DISABLED
 GLOBAL| Matrix multiplication library                                 ScaLAPACK
 GLOBAL| All-to-all communication in single precision                          F
 GLOBAL| FFTs using library dependent lengths                                  F
 GLOBAL| Grid backend                                                       AUTO
 GLOBAL| Global print level                                               MEDIUM
 GLOBAL| MPI I/O enabled                                                       T
 GLOBAL| Total number of message passing processes                           192
 GLOBAL| Number of threads for this process                                    1
 GLOBAL| This output is from process                                           0
 GLOBAL| Stack size for threads created by OpenMP (OMP_STACKSIZE)        default
 GLOBAL| CPU model name             Intel(R) Xeon(R) Platinum 8174 CPU @ 3.10GHz

 MEMORY| system memory details [Kb]
 MEMORY|                        rank 0           min           max       average
 MEMORY| MemTotal             98436664      98436660      98436736      98436685
 MEMORY| MemFree              82460872      82409232      82891956      82536953
 MEMORY| Buffers                     0             0             0             0
 MEMORY| Cached                2875008       2860924       2895732       2880309
 MEMORY| Slab                  1165076       1138688       1213064       1165202
 MEMORY| SReclaimable           255528        250128        265548        256167
 MEMORY| MemLikelyFree        85591408      85561668      86034720      85673430


 *** Fundamental physical constants (SI units) ***

 *** Literature: B. J. Mohr and B. N. Taylor,
 ***             CODATA recommended values of the fundamental physical
 ***             constants: 2006, Web Version 5.1
 ***             http://physics.nist.gov/constants

 Speed of light in vacuum [m/s]                             2.99792458000000E+08
 Magnetic constant or permeability of vacuum [N/A**2]       1.25663706143592E-06
 Electric constant or permittivity of vacuum [F/m]          8.85418781762039E-12
 Planck constant (h) [J*s]                                  6.62606896000000E-34
 Planck constant (h-bar) [J*s]                              1.05457162825177E-34
 Elementary charge [C]                                      1.60217648700000E-19
 Electron mass [kg]                                         9.10938215000000E-31
 Electron g factor [ ]                                     -2.00231930436220E+00
 Proton mass [kg]                                           1.67262163700000E-27
 Fine-structure constant                                    7.29735253760000E-03
 Rydberg constant [1/m]                                     1.09737315685270E+07
 Avogadro constant [1/mol]                                  6.02214179000000E+23
 Boltzmann constant [J/K]                                   1.38065040000000E-23
 Atomic mass unit [kg]                                      1.66053878200000E-27
 Bohr radius [m]                                            5.29177208590000E-11

 *** Conversion factors ***

 [u] -> [a.u.]                                              1.82288848426455E+03
 [Angstrom] -> [Bohr] = [a.u.]                              1.88972613288564E+00
 [a.u.] = [Bohr] -> [Angstrom]                              5.29177208590000E-01
 [a.u.] -> [s]                                              2.41888432650478E-17
 [a.u.] -> [fs]                                             2.41888432650478E-02
 [a.u.] -> [J]                                              4.35974393937059E-18
 [a.u.] -> [N]                                              8.23872205491840E-08
 [a.u.] -> [K]                                              3.15774647902944E+05
 [a.u.] -> [kJ/mol]                                         2.62549961709828E+03
 [a.u.] -> [kcal/mol]                                       6.27509468713739E+02
 [a.u.] -> [Pa]                                             2.94210107994716E+13
 [a.u.] -> [bar]                                            2.94210107994716E+08
 [a.u.] -> [atm]                                            2.90362800883016E+08
 [a.u.] -> [eV]                                             2.72113838565563E+01
 [a.u.] -> [Hz]                                             6.57968392072181E+15
 [a.u.] -> [1/cm] (wave numbers)                            2.19474631370540E+05
 [a.u./Bohr**2] -> [1/cm]                                   5.14048714338585E+03
 

 CELL_TOP| Volume [angstrom^3]:                                     13185.261000
 CELL_TOP| Vector a [angstrom    31.860     0.000     0.000   |a| =    31.860000
 CELL_TOP| Vector b [angstrom   -15.930    27.590     0.000   |b| =    31.858641
 CELL_TOP| Vector c [angstrom     0.000     0.000    15.000   |c| =    15.000000
 CELL_TOP| Angle (b,c), alpha [degree]:                                90.000000
 CELL_TOP| Angle (a,c), beta  [degree]:                                90.000000
 CELL_TOP| Angle (a,b), gamma [degree]:                               120.001411
 CELL_TOP| Numerically orthorhombic:                                          NO
 CELL_TOP| Periodicity                                                        XY
 
 GENERATE|  Preliminary Number of Bonds generated:                             0
 GENERATE|  Achieved consistency in connectivity generation.

 CELL| Volume [angstrom^3]:                                         13185.261000
 CELL| Vector a [angstrom]:      31.860     0.000     0.000   |a| =    31.860000
 CELL| Vector b [angstrom]:     -15.930    27.590     0.000   |b| =    31.858641
 CELL| Vector c [angstrom]:       0.000     0.000    15.000   |c| =    15.000000
 CELL| Angle (b,c), alpha [degree]:                                    90.000000
 CELL| Angle (a,c), beta  [degree]:                                    90.000000
 CELL| Angle (a,b), gamma [degree]:                                   120.001411
 CELL| Numerically orthorhombic:                                              NO
 CELL| Periodicity                                                            XY

 CELL_REF| Volume [angstrom^3]:                                     13185.261000
 CELL_REF| Vector a [angstrom    31.860     0.000     0.000   |a| =    31.860000
 CELL_REF| Vector b [angstrom   -15.930    27.590     0.000   |b| =    31.858641
 CELL_REF| Vector c [angstrom     0.000     0.000    15.000   |c| =    15.000000
 CELL_REF| Angle (b,c), alpha [degree]:                                90.000000
 CELL_REF| Angle (a,c), beta  [degree]:                                90.000000
 CELL_REF| Angle (a,b), gamma [degree]:                               120.001411
 CELL_REF| Numerically orthorhombic:                                          NO
 CELL_REF| Periodicity                                                        XY

 *******************************************************************************
 *******************************************************************************
 **                                                                           **
 **     #####                         ##              ##                      **
 **    ##   ##            ##          ##              ##                      **
 **   ##     ##                       ##            ######                    **
 **   ##     ##  ##   ##  ##   #####  ##  ##   ####   ##    #####    #####    **
 **   ##     ##  ##   ##  ##  ##      ## ##   ##      ##   ##   ##  ##   ##   **
 **   ##  ## ##  ##   ##  ##  ##      ####     ###    ##   ######   ######    **
 **    ##  ###   ##   ##  ##  ##      ## ##      ##   ##   ##       ##        **
 **     #######   #####   ##   #####  ##  ##  ####    ##    #####   ##        **
 **           ##                                                    ##        **
 **                                                                           **
 **                                                ... make the atoms dance   **
 **                                                                           **
 **            Copyright (C) by CP2K developers group (2000-2023)             **
 **                      J. Chem. Phys. 152, 194103 (2020)                    **
 **                                                                           **
 *******************************************************************************

 DFT| Spin unrestricted (spin-polarized) Kohn-Sham calculation               UKS
 DFT| Multiplicity                                                             2
 DFT| Number of spin states                                                    2
 DFT| Charge                                                                   1
 DFT| Self-interaction correction (SIC)                                       NO
 DFT| Cutoffs: density                                              1.000000E-10
 DFT|          gradient                                             1.000000E-10
 DFT|          tau                                                  1.000000E-10
 DFT|          cutoff_smoothing_range                               0.000000E+00
 DFT| XC density smoothing                                                  NONE
 DFT| XC derivatives                                                          PW

 FUNCTIONAL| PADE:
 FUNCTIONAL| S. Goedecker, M. Teter and J. Hutter, Phys. Rev. B 54, 1703 (1996) 


 QS| Method:                                                                 GPW
 QS| Density plane wave grid type                        NON-SPHERICAL FULLSPACE
 QS| Number of grid levels:                                                    4
 QS| Density cutoff [a.u.]:                                                250.0
 QS| Multi grid cutoff [a.u.]: 1) grid level                               250.0
 QS|                           2) grid level                                83.3
 QS|                           3) grid level                                27.8
 QS|                           4) grid level                                 9.3
 QS| Grid level progression factor:                                          3.0
 QS| Relative density cutoff [a.u.]:                                        50.0
 QS| Interaction thresholds: eps_pgf_orb:                                1.0E-40
 QS|                         eps_filter_matrix:                          0.0E+00
 QS|                         eps_core_charge:                            1.0E-42
 QS|                         eps_rho_gspace:                             1.0E-40
 QS|                         eps_rho_rspace:                             1.0E-40
 QS|                         eps_gvg_rspace:                             1.0E-20
 QS|                         eps_ppl:                                    1.0E-02
 QS|                         eps_ppnl:                                   1.0E-22


 ATOMIC KIND INFORMATION

  1. Atomic kind: W                                     Number of atoms:     100

     Orbital Basis Set                                  TZVP-MOLOPT-GTH_upscaled

       Number of orbital shell sets:                                           1
       Number of orbital shells:                                              11
       Number of primitive Cartesian functions:                                7
       Number of Cartesian basis functions:                                   41
       Number of spherical basis functions:                                   35
       Norm type:                                                              2

       Normalised Cartesian orbitals:

                        Set   Shell   Orbital            Exponent    Coefficient

                          1       1    2s                3.103254       0.432128
                                                         2.893835       0.497697
                                                         1.106151      -0.752121
                                                         0.501100      -0.216922
                                                         0.214447       0.032823
                                                         0.140000       0.053490
                                                         0.120000      -0.061173

                          1       2    3s                3.103254      -0.813729
                                                         2.893835       0.639864
                                                         1.106151       0.039972
                                                         0.501100      -0.059528
                                                         0.214447       0.077002
                                                         0.140000      -0.420972
                                                         0.120000       0.481432

                          1       3    4s                3.103254       1.541003
                                                         2.893835      -0.927602
                                                         1.106151      -0.272969
                                                         0.501100       0.064402
                                                         0.214447      -0.275240
                                                         0.140000      -0.858027
                                                         0.120000       0.981259

                          1       4    5s                3.103254       1.221199
                                                         2.893835      -1.384344
                                                         1.106151       0.313815
                                                         0.501100      -0.289021
                                                         0.214447       0.251699
                                                         0.140000      -0.157712
                                                         0.120000       0.180363

                          1       5    3px               3.103254       6.587488
                                                         2.893835      -5.430631
                                                         1.106151      -0.972560
                                                         0.501100      -0.261614
                                                         0.214447      -0.013936
                                                         0.140000      -0.008290
                                                         0.120000       0.008777
                          1       5    3py               3.103254       6.587488
                                                         2.893835      -5.430631
                                                         1.106151      -0.972560
                                                         0.501100      -0.261614
                                                         0.214447      -0.013936
                                                         0.140000      -0.008290
                                                         0.120000       0.008777
                          1       5    3pz               3.103254       6.587488
                                                         2.893835      -5.430631
                                                         1.106151      -0.972560
                                                         0.501100      -0.261614
                                                         0.214447      -0.013936
                                                         0.140000      -0.008290
                                                         0.120000       0.008777

                          1       6    4px               3.103254      -0.215503
                                                         2.893835       0.319008
                                                         1.106151      -0.250093
                                                         0.501100      -0.016350
                                                         0.214447       0.058331
                                                         0.140000      -0.317701
                                                         0.120000       0.336378
                          1       6    4py               3.103254      -0.215503
                                                         2.893835       0.319008
                                                         1.106151      -0.250093
                                                         0.501100      -0.016350
                                                         0.214447       0.058331
                                                         0.140000      -0.317701
                                                         0.120000       0.336378
                          1       6    4pz               3.103254      -0.215503
                                                         2.893835       0.319008
                                                         1.106151      -0.250093
                                                         0.501100      -0.016350
                                                         0.214447       0.058331
                                                         0.140000      -0.317701
                                                         0.120000       0.336378

                          1       7    5px               3.103254       1.477813
                                                         2.893835      -1.135541
                                                         1.106151       1.380857
                                                         0.501100       0.146858
                                                         0.214447      -0.336829
                                                         0.140000      -0.340586
                                                         0.120000       0.360608
                          1       7    5py               3.103254       1.477813
                                                         2.893835      -1.135541
                                                         1.106151       1.380857
                                                         0.501100       0.146858
                                                         0.214447      -0.336829
                                                         0.140000      -0.340586
                                                         0.120000       0.360608
                          1       7    5pz               3.103254       1.477813
                                                         2.893835      -1.135541
                                                         1.106151       1.380857
                                                         0.501100       0.146858
                                                         0.214447      -0.336829
                                                         0.140000      -0.340586
                                                         0.120000       0.360608

                          1       8    4dx2              3.103254      -0.073730
                                                         2.893835       0.215072
                                                         1.106151       0.648029
                                                         0.501100       0.200612
                                                         0.214447       0.032511
                                                         0.140000      -0.040198
                                                         0.120000       0.039404
                          1       8    4dxy              3.103254      -0.127705
                                                         2.893835       0.372516
                                                         1.106151       1.122419
                                                         0.501100       0.347470
                                                         0.214447       0.056311
                                                         0.140000      -0.069626
                                                         0.120000       0.068250
                          1       8    4dxz              3.103254      -0.127705
                                                         2.893835       0.372516
                                                         1.106151       1.122419
                                                         0.501100       0.347470
                                                         0.214447       0.056311
                                                         0.140000      -0.069626
                                                         0.120000       0.068250
                          1       8    4dy2              3.103254      -0.073730
                                                         2.893835       0.215072
                                                         1.106151       0.648029
                                                         0.501100       0.200612
                                                         0.214447       0.032511
                                                         0.140000      -0.040198
                                                         0.120000       0.039404
                          1       8    4dyz              3.103254      -0.127705
                                                         2.893835       0.372516
                                                         1.106151       1.122419
                                                         0.501100       0.347470
                                                         0.214447       0.056311
                                                         0.140000      -0.069626
                                                         0.120000       0.068250
                          1       8    4dz2              3.103254      -0.073730
                                                         2.893835       0.215072
                                                         1.106151       0.648029
                                                         0.501100       0.200612
                                                         0.214447       0.032511
                                                         0.140000      -0.040198
                                                         0.120000       0.039404

                          1       9    5dx2              3.103254       0.120212
                                                         2.893835      -0.247034
                                                         1.106151      -0.585668
                                                         0.501100      -0.200109
                                                         0.214447       0.050368
                                                         0.140000      -0.108711
                                                         0.120000       0.106563
                          1       9    5dxy              3.103254       0.208214
                                                         2.893835      -0.427875
                                                         1.106151      -1.014406
                                                         0.501100      -0.346599
                                                         0.214447       0.087239
                                                         0.140000      -0.188293
                                                         0.120000       0.184573
                          1       9    5dxz              3.103254       0.208214
                                                         2.893835      -0.427875
                                                         1.106151      -1.014406
                                                         0.501100      -0.346599
                                                         0.214447       0.087239
                                                         0.140000      -0.188293
                                                         0.120000       0.184573
                          1       9    5dy2              3.103254       0.120212
                                                         2.893835      -0.247034
                                                         1.106151      -0.585668
                                                         0.501100      -0.200109
                                                         0.214447       0.050368
                                                         0.140000      -0.108711
                                                         0.120000       0.106563
                          1       9    5dyz              3.103254       0.208214
                                                         2.893835      -0.427875
                                                         1.106151      -1.014406
                                                         0.501100      -0.346599
                                                         0.214447       0.087239
                                                         0.140000      -0.188293
                                                         0.120000       0.184573
                          1       9    5dz2              3.103254       0.120212
                                                         2.893835      -0.247034
                                                         1.106151      -0.585668
                                                         0.501100      -0.200109
                                                         0.214447       0.050368
                                                         0.140000      -0.108711
                                                         0.120000       0.106563

                          1      10    6dx2              3.103254      10.228451
                                                         2.893835     -10.154808
                                                         1.106151       0.833144
                                                         0.501100      -0.004804
                                                         0.214447      -0.129172
                                                         0.140000      -0.186637
                                                         0.120000       0.182950
                          1      10    6dxy              3.103254      17.716196
                                                         2.893835     -17.588644
                                                         1.106151       1.443047
                                                         0.501100      -0.008321
                                                         0.214447      -0.223732
                                                         0.140000      -0.323264
                                                         0.120000       0.316879
                          1      10    6dxz              3.103254      17.716196
                                                         2.893835     -17.588644
                                                         1.106151       1.443047
                                                         0.501100      -0.008321
                                                         0.214447      -0.223732
                                                         0.140000      -0.323264
                                                         0.120000       0.316879
                          1      10    6dy2              3.103254      10.228451
                                                         2.893835     -10.154808
                                                         1.106151       0.833144
                                                         0.501100      -0.004804
                                                         0.214447      -0.129172
                                                         0.140000      -0.186637
                                                         0.120000       0.182950
                          1      10    6dyz              3.103254      17.716196
                                                         2.893835     -17.588644
                                                         1.106151       1.443047
                                                         0.501100      -0.008321
                                                         0.214447      -0.223732
                                                         0.140000      -0.323264
                                                         0.120000       0.316879
                          1      10    6dz2              3.103254      10.228451
                                                         2.893835     -10.154808
                                                         1.106151       0.833144
                                                         0.501100      -0.004804
                                                         0.214447      -0.129172
                                                         0.140000      -0.186637
                                                         0.120000       0.182950

                          1      11    5fx3              3.103254      -2.200951
                                                         2.893835       2.432659
                                                         1.106151      -0.371072
                                                         0.501100      -0.177479
                                                         0.214447      -0.017113
                                                         0.140000       0.003424
                                                         0.120000      -0.003108
                          1      11    5fx2y             3.103254      -4.921477
                                                         2.893835       5.439590
                                                         1.106151      -0.829742
                                                         0.501100      -0.396854
                                                         0.214447      -0.038265
                                                         0.140000       0.007657
                                                         0.120000      -0.006949
                          1      11    5fx2z             3.103254      -4.921477
                                                         2.893835       5.439590
                                                         1.106151      -0.829742
                                                         0.501100      -0.396854
                                                         0.214447      -0.038265
                                                         0.140000       0.007657
                                                         0.120000      -0.006949
                          1      11    5fxy2             3.103254      -4.921477
                                                         2.893835       5.439590
                                                         1.106151      -0.829742
                                                         0.501100      -0.396854
                                                         0.214447      -0.038265
                                                         0.140000       0.007657
                                                         0.120000      -0.006949
                          1      11    5fxyz             3.103254      -8.524248
                                                         2.893835       9.421647
                                                         1.106151      -1.437155
                                                         0.501100      -0.687372
                                                         0.214447      -0.066277
                                                         0.140000       0.013263
                                                         0.120000      -0.012036
                          1      11    5fxz2             3.103254      -4.921477
                                                         2.893835       5.439590
                                                         1.106151      -0.829742
                                                         0.501100      -0.396854
                                                         0.214447      -0.038265
                                                         0.140000       0.007657
                                                         0.120000      -0.006949
                          1      11    5fy3              3.103254      -2.200951
                                                         2.893835       2.432659
                                                         1.106151      -0.371072
                                                         0.501100      -0.177479
                                                         0.214447      -0.017113
                                                         0.140000       0.003424
                                                         0.120000      -0.003108
                          1      11    5fy2z             3.103254      -4.921477
                                                         2.893835       5.439590
                                                         1.106151      -0.829742
                                                         0.501100      -0.396854
                                                         0.214447      -0.038265
                                                         0.140000       0.007657
                                                         0.120000      -0.006949
                          1      11    5fyz2             3.103254      -4.921477
                                                         2.893835       5.439590
                                                         1.106151      -0.829742
                                                         0.501100      -0.396854
                                                         0.214447      -0.038265
                                                         0.140000       0.007657
                                                         0.120000      -0.006949
                          1      11    5fz3              3.103254      -2.200951
                                                         2.893835       2.432659
                                                         1.106151      -0.371072
                                                         0.501100      -0.177479
                                                         0.214447      -0.017113
                                                         0.140000       0.003424
                                                         0.120000      -0.003108

     RI Auxiliary Basis Set                                                   RI

       Number of orbital shell sets:                                          16
       Number of orbital shells:                                              16
       Number of primitive Cartesian functions:                               16
       Number of Cartesian basis functions:                                   88
       Number of spherical basis functions:                                   66
       Norm type:                                                              2

       Normalised Cartesian orbitals:

                        Set   Shell   Orbital            Exponent    Coefficient

                          1       1    1s                0.240000       0.244382

                          2       1    1px               0.250000       0.251979
                          2       1    1py               0.250000       0.251979
                          2       1    1pz               0.250000       0.251979

                          3       1    1fx3              0.253210       0.066956
                          3       1    1fx2y             0.253210       0.149717
                          3       1    1fx2z             0.253210       0.149717
                          3       1    1fxy2             0.253210       0.149717
                          3       1    1fxyz             0.253210       0.259318
                          3       1    1fxz2             0.253210       0.149717
                          3       1    1fy3              0.253210       0.066956
                          3       1    1fy2z             0.253210       0.149717
                          3       1    1fyz2             0.253210       0.149717
                          3       1    1fz3              0.253210       0.066956

                          4       1    1dx2              0.304020       0.204875
                          4       1    1dxy              0.304020       0.354853
                          4       1    1dxz              0.304020       0.354853
                          4       1    1dy2              0.304020       0.204875
                          4       1    1dyz              0.304020       0.354853
                          4       1    1dz2              0.304020       0.204875

                          5       1    1gx4              0.365030       0.069637
                          5       1    1gx3y             0.365030       0.184242
                          5       1    1gx3z             0.365030       0.184242
                          5       1    1gx2y2            0.365030       0.237855
                          5       1    1gx2yz            0.365030       0.411977
                          5       1    1gx2z2            0.365030       0.237855
                          5       1    1gxy3             0.365030       0.184242
                          5       1    1gxy2z            0.365030       0.411977
                          5       1    1gxyz2            0.365030       0.411977
                          5       1    1gxz3             0.365030       0.184242
                          5       1    1gy4              0.365030       0.069637
                          5       1    1gy3z             0.365030       0.184242
                          5       1    1gy2z2            0.365030       0.237855
                          5       1    1gyz3             0.365030       0.184242
                          5       1    1gz4              0.365030       0.069637

                          6       1    1s                0.424630       0.374902

                          7       1    1s                0.648980       0.515328

                          8       1    1dx2              0.719090       0.924230
                          8       1    1dxy              0.719090       1.600814
                          8       1    1dxz              0.719090       1.600814
                          8       1    1dy2              0.719090       0.924230
                          8       1    1dyz              0.719090       1.600814
                          8       1    1dz2              0.719090       0.924230

                          9       1    1gx4              0.914480       0.870291
                          9       1    1gx3y             0.914480       2.302574
                          9       1    1gx3z             0.914480       2.302574
                          9       1    1gx2y2            0.914480       2.972610
                          9       1    1gx2yz            0.914480       5.148711
                          9       1    1gx2z2            0.914480       2.972610
                          9       1    1gxy3             0.914480       2.302574
                          9       1    1gxy2z            0.914480       5.148711
                          9       1    1gxyz2            0.914480       5.148711
                          9       1    1gxz3             0.914480       2.302574
                          9       1    1gy4              0.914480       0.870291
                          9       1    1gy3z             0.914480       2.302574
                          9       1    1gy2z2            0.914480       2.972610
                          9       1    1gyz3             0.914480       2.302574
                          9       1    1gz4              0.914480       0.870291

                         10       1    1px               0.967490       1.367723
                         10       1    1py               0.967490       1.367723
                         10       1    1pz               0.967490       1.367723

                         11       1    1dx2              1.179750       2.198072
                         11       1    1dxy              1.179750       3.807173
                         11       1    1dxz              1.179750       3.807173
                         11       1    1dy2              1.179750       2.198072
                         11       1    1dyz              1.179750       3.807173
                         11       1    1dz2              1.179750       2.198072

                         12       1    1fx3              1.281070       2.570357
                         12       1    1fx2y             1.281070       5.747492
                         12       1    1fx2z             1.281070       5.747492
                         12       1    1fxy2             1.281070       5.747492
                         12       1    1fxyz             1.281070       9.954948
                         12       1    1fxz2             1.281070       5.747492
                         12       1    1fy3              1.281070       2.570357
                         12       1    1fy2z             1.281070       5.747492
                         12       1    1fyz2             1.281070       5.747492
                         12       1    1fz3              1.281070       2.570357

                         13       1    1s                1.466370       0.949714

                         14       1    1px               1.939290       3.262072
                         14       1    1py               1.939290       3.262072
                         14       1    1pz               1.939290       3.262072

                         15       1    1s                2.101910       1.244144

                         16       1    1dx2              2.484170       8.090526
                         16       1    1dxy              2.484170      14.013202
                         16       1    1dxz              2.484170      14.013202
                         16       1    1dy2              2.484170       8.090526
                         16       1    1dyz              2.484170      14.013202
                         16       1    1dz2              2.484170       8.090526

       Atomic covalent radius [Angstrom]:                                  1.300

       Atomic van der Waals radius [Angstrom]:                             1.670

     GTH Potential information for                                  GTH-PADE-q14

       Description:                       Goedecker-Teter-Hutter pseudopotential
                                           Goedecker et al., PRB 54, 1703 (1996)
                                          Hartwigsen et al., PRB 58, 3641 (1998)
                                                      Krack, TCA 114, 145 (2005)

       Gaussian exponent of the core charge distribution:               1.714678
       Electronic configuration (s p d ...):                           4   6   4

       Parameters of the local part of the GTH pseudopotential:

                          rloc        C1          C2          C3          C4
                        0.540000    4.800251    0.901544

       Parameters of the non-local part of the GTH (SOC) pseudopotential:

                   l      r(l)      h(i,j,l)
                                    k(i,j,l)
                   0    0.418570    2.692204    2.332557    0.297239
                                    2.332557   -6.022638   -0.767467
                                    0.297239   -0.767467    1.218316
                   1    0.449555   -0.702084    1.036024    0.000000
                                    1.036024   -2.451680    0.000000
                                    0.000000    0.000000    0.000000
                                    0.715480    0.162835   -0.022919
                                    0.162835   -0.385339    0.054237
                                   -0.022919    0.054237   -0.077093
                   2    0.399602    1.177436    2.448917
                                    2.448917   -5.553621
                                    0.205860    0.044116
                                    0.044116   -0.100046

  2. Atomic kind: S                                     Number of atoms:     199

     Orbital Basis Set                                  TZVP-MOLOPT-GTH_upscaled

       Number of orbital shell sets:                                           1
       Number of orbital shells:                                               7
       Number of primitive Cartesian functions:                                7
       Number of Cartesian basis functions:                                   18
       Number of spherical basis functions:                                   17
       Norm type:                                                              2

       Normalised Cartesian orbitals:

                        Set   Shell   Orbital            Exponent    Coefficient

                          1       1    2s                3.817591       0.157267
                                                         2.362752      -0.510091
                                                         0.861004      -0.067546
                                                         0.417525       0.341513
                                                         0.181514       0.065074
                                                         0.140000      -0.001073
                                                         0.120000       0.001196

                          1       2    3s                3.817591      -0.191568
                                                         2.362752       0.523701
                                                         0.861004       0.282710
                                                         0.417525      -0.587888
                                                         0.181514       0.178884
                                                         0.140000      -0.487887
                                                         0.120000       0.543819

                          1       3    4s                3.817591      -0.991151
                                                         2.362752       1.865280
                                                         0.861004       0.135387
                                                         0.417525      -0.133451
                                                         0.181514       0.078400
                                                         0.140000       0.363817
                                                         0.120000      -0.405526

                          1       4    3px               3.817591      -0.172566
                                                         2.362752      -0.175790
                                                         0.861004       0.224449
                                                         0.417525       0.286658
                                                         0.181514       0.049751
                                                         0.140000      -0.014459
                                                         0.120000       0.014921
                          1       4    3py               3.817591      -0.172566
                                                         2.362752      -0.175790
                                                         0.861004       0.224449
                                                         0.417525       0.286658
                                                         0.181514       0.049751
                                                         0.140000      -0.014459
                                                         0.120000       0.014921
                          1       4    3pz               3.817591      -0.172566
                                                         2.362752      -0.175790
                                                         0.861004       0.224449
                                                         0.417525       0.286658
                                                         0.181514       0.049751
                                                         0.140000      -0.014459
                                                         0.120000       0.014921

                          1       5    4px               3.817591       0.010507
                                                         2.362752       0.217406
                                                         0.861004      -0.162395
                                                         0.417525      -0.206857
                                                         0.181514       0.107046
                                                         0.140000      -0.281393
                                                         0.120000       0.290385
                          1       5    4py               3.817591       0.010507
                                                         2.362752       0.217406
                                                         0.861004      -0.162395
                                                         0.417525      -0.206857
                                                         0.181514       0.107046
                                                         0.140000      -0.281393
                                                         0.120000       0.290385
                          1       5    4pz               3.817591       0.010507
                                                         2.362752       0.217406
                                                         0.861004      -0.162395
                                                         0.417525      -0.206857
                                                         0.181514       0.107046
                                                         0.140000      -0.281393
                                                         0.120000       0.290385

                          1       6    5px               3.817591      -0.947232
                                                         2.362752       1.731661
                                                         0.861004      -1.484366
                                                         0.417525       0.775915
                                                         0.181514       0.065997
                                                         0.140000       0.307740
                                                         0.120000      -0.317574
                          1       6    5py               3.817591      -0.947232
                                                         2.362752       1.731661
                                                         0.861004      -1.484366
                                                         0.417525       0.775915
                                                         0.181514       0.065997
                                                         0.140000       0.307740
                                                         0.120000      -0.317574
                          1       6    5pz               3.817591      -0.947232
                                                         2.362752       1.731661
                                                         0.861004      -1.484366
                                                         0.417525       0.775915
                                                         0.181514       0.065997
                                                         0.140000       0.307740
                                                         0.120000      -0.317574

                          1       7    4dx2              3.817591       0.133441
                                                         2.362752       0.805146
                                                         0.861004       0.452959
                                                         0.417525       0.174839
                                                         0.181514       0.017641
                                                         0.140000       0.004216
                                                         0.120000      -0.004028
                          1       7    4dxy              3.817591       0.231126
                                                         2.362752       1.394554
                                                         0.861004       0.784547
                                                         0.417525       0.302830
                                                         0.181514       0.030555
                                                         0.140000       0.007302
                                                         0.120000      -0.006976
                          1       7    4dxz              3.817591       0.231126
                                                         2.362752       1.394554
                                                         0.861004       0.784547
                                                         0.417525       0.302830
                                                         0.181514       0.030555
                                                         0.140000       0.007302
                                                         0.120000      -0.006976
                          1       7    4dy2              3.817591       0.133441
                                                         2.362752       0.805146
                                                         0.861004       0.452959
                                                         0.417525       0.174839
                                                         0.181514       0.017641
                                                         0.140000       0.004216
                                                         0.120000      -0.004028
                          1       7    4dyz              3.817591       0.231126
                                                         2.362752       1.394554
                                                         0.861004       0.784547
                                                         0.417525       0.302830
                                                         0.181514       0.030555
                                                         0.140000       0.007302
                                                         0.120000      -0.006976
                          1       7    4dz2              3.817591       0.133441
                                                         2.362752       0.805146
                                                         0.861004       0.452959
                                                         0.417525       0.174839
                                                         0.181514       0.017641
                                                         0.140000       0.004216
                                                         0.120000      -0.004028

     RI Auxiliary Basis Set                                                   RI

       Number of orbital shell sets:                                          12
       Number of orbital shells:                                              12
       Number of primitive Cartesian functions:                               12
       Number of Cartesian basis functions:                                   44
       Number of spherical basis functions:                                   38
       Norm type:                                                              2

       Normalised Cartesian orbitals:

                        Set   Shell   Orbital            Exponent    Coefficient

                          1       1    1s                0.250000       0.251979

                          2       1    1px               0.250000       0.251979
                          2       1    1py               0.250000       0.251979
                          2       1    1pz               0.250000       0.251979

                          3       1    1dx2              0.250000       0.145480
                          3       1    1dxy              0.250000       0.251979
                          3       1    1dxz              0.250000       0.251979
                          3       1    1dy2              0.250000       0.145480
                          3       1    1dyz              0.250000       0.251979
                          3       1    1dz2              0.250000       0.145480

                          4       1    1s                0.389135       0.351144

                          5       1    1dx2              0.603367       0.679871
                          5       1    1dxy              0.603367       1.177572
                          5       1    1dxz              0.603367       1.177572
                          5       1    1dy2              0.603367       0.679871
                          5       1    1dyz              0.603367       1.177572
                          5       1    1dz2              0.603367       0.679871

                          6       1    1px               0.631252       0.802035
                          6       1    1py               0.631252       0.802035
                          6       1    1pz               0.631252       0.802035

                          7       1    1fx3              0.711060       0.683508
                          7       1    1fx2y             0.711060       1.528371
                          7       1    1fx2z             0.711060       1.528371
                          7       1    1fxy2             0.711060       1.528371
                          7       1    1fxyz             0.711060       2.647216
                          7       1    1fxz2             0.711060       1.528371
                          7       1    1fy3              0.711060       0.683508
                          7       1    1fy2z             0.711060       1.528371
                          7       1    1fyz2             0.711060       1.528371
                          7       1    1fz3              0.711060       0.683508

                          8       1    1s                0.936032       0.678232

                          9       1    1dx2              1.115385       1.992520
                          9       1    1dxy              1.115385       3.451146
                          9       1    1dxz              1.115385       3.451146
                          9       1    1dy2              1.115385       1.992520
                          9       1    1dyz              1.115385       3.451146
                          9       1    1dz2              1.115385       1.992520

                         10       1    1px               1.173306       1.740620
                         10       1    1py               1.173306       1.740620
                         10       1    1pz               1.173306       1.740620

                         11       1    1s                2.064006       1.227279

                         12       1    1px               2.625789       4.764474
                         12       1    1py               2.625789       4.764474
                         12       1    1pz               2.625789       4.764474

       Atomic covalent radius [Angstrom]:                                  1.020

       Atomic van der Waals radius [Angstrom]:                             1.800

     GTH Potential information for                                   GTH-PADE-q6

       Description:                       Goedecker-Teter-Hutter pseudopotential
                                           Goedecker et al., PRB 54, 1703 (1996)
                                          Hartwigsen et al., PRB 58, 3641 (1998)
                                                      Krack, TCA 114, 145 (2005)

       Gaussian exponent of the core charge distribution:               2.834467
       Electronic configuration (s p d ...):                               2   4

       Parameters of the local part of the GTH pseudopotential:

                          rloc        C1          C2          C3          C4
                        0.420000   -6.554492

       Parameters of the non-local part of the GTH (SOC) pseudopotential:

                   l      r(l)      h(i,j,l)
                                    k(i,j,l)
                   0    0.361757    7.905303   -1.731881
                                   -1.731881    4.471698
                   1    0.405285    3.866579    0.000000
                                    0.000000    0.000000
                                    0.005372   -0.009323
                                   -0.009323    0.022062


 MOLECULE KIND INFORMATION


 All atoms are their own molecule, skipping detailed information


 TOTAL NUMBERS AND MAXIMUM NUMBERS

  Total number of            - Atomic kinds:                                   2
                             - Atoms:                                        299
                             - Shell sets:                                   299
                             - Shells:                                      2493
                             - Primitive Cartesian functions:               2093
                             - Cartesian basis functions:                   7682
                             - Spherical basis functions:                   6883

  Maximum angular momentum of- Orbital basis functions:                        3
                             - Local part of the GTH pseudopotential:          2
                             - Non-local part of the GTH pseudopotential:      5


 MODULE QUICKSTEP: ATOMIC COORDINATES IN ANGSTROM

   Atom Kind Element         X             Y             Z       Z(eff)     Mass
      1    1 W    74      0.000000      0.000000      7.072797  14.0000 183.8400
      2    2 S    16      1.592973      0.919703      5.500000   6.0000  32.0650
      3    1 W    74      3.186000      0.000000      7.072797  14.0000 183.8400
      4    2 S    16      4.778973      0.919703      8.645595   6.0000  32.0650
      5    2 S    16      4.778973      0.919703      5.500000   6.0000  32.0650
      6    1 W    74      6.372000      0.000000      7.072797  14.0000 183.8400
      7    2 S    16      7.964973      0.919703      8.645595   6.0000  32.0650
      8    2 S    16      7.964973      0.919703      5.500000   6.0000  32.0650
      9    1 W    74      9.558000      0.000000      7.072797  14.0000 183.8400
     10    2 S    16     11.150973      0.919703      8.645595   6.0000  32.0650
     11    2 S    16     11.150973      0.919703      5.500000   6.0000  32.0650
     12    1 W    74     12.744000      0.000000      7.072797  14.0000 183.8400
     13    2 S    16     14.336973      0.919703      8.645595   6.0000  32.0650
     14    2 S    16     14.336973      0.919703      5.500000   6.0000  32.0650
     15    1 W    74     15.930000      0.000000      7.072797  14.0000 183.8400
     16    2 S    16     17.522973      0.919703      8.645595   6.0000  32.0650
     17    2 S    16     17.522973      0.919703      5.500000   6.0000  32.0650
     18    1 W    74     19.116000      0.000000      7.072797  14.0000 183.8400
     19    2 S    16     20.708973      0.919703      8.645595   6.0000  32.0650
     20    2 S    16     20.708973      0.919703      5.500000   6.0000  32.0650
     21    1 W    74     22.302000      0.000000      7.072797  14.0000 183.8400
     22    2 S    16     23.894973      0.919703      8.645595   6.0000  32.0650
     23    2 S    16     23.894973      0.919703      5.500000   6.0000  32.0650
     24    1 W    74     25.488000      0.000000      7.072797  14.0000 183.8400
     25    2 S    16     27.080973      0.919703      8.645595   6.0000  32.0650
     26    2 S    16     27.080973      0.919703      5.500000   6.0000  32.0650
     27    1 W    74     28.674000      0.000000      7.072797  14.0000 183.8400
     28    2 S    16     30.266973      0.919703      8.645595   6.0000  32.0650
     29    2 S    16     30.266973      0.919703      5.500000   6.0000  32.0650
     30    1 W    74     -1.593000      2.759000      7.072797  14.0000 183.8400
     31    2 S    16     -0.000027      3.678703      8.645595   6.0000  32.0650
     32    2 S    16     -0.000027      3.678703      5.500000   6.0000  32.0650
     33    1 W    74      1.593000      2.759000      7.072797  14.0000 183.8400
     34    2 S    16      3.185973      3.678703      8.645595   6.0000  32.0650
     35    2 S    16      3.185973      3.678703      5.500000   6.0000  32.0650
     36    1 W    74      4.779000      2.759000      7.072797  14.0000 183.8400
     37    2 S    16      6.371973      3.678703      8.645595   6.0000  32.0650
     38    2 S    16      6.371973      3.678703      5.500000   6.0000  32.0650
     39    1 W    74      7.965000      2.759000      7.072797  14.0000 183.8400
     40    2 S    16      9.557973      3.678703      8.645595   6.0000  32.0650
     41    2 S    16      9.557973      3.678703      5.500000   6.0000  32.0650
     42    1 W    74     11.151000      2.759000      7.072797  14.0000 183.8400
     43    2 S    16     12.743973      3.678703      8.645595   6.0000  32.0650
     44    2 S    16     12.743973      3.678703      5.500000   6.0000  32.0650
     45    1 W    74     14.337000      2.759000      7.072797  14.0000 183.8400
     46    2 S    16     15.929973      3.678703      8.645595   6.0000  32.0650
     47    2 S    16     15.929973      3.678703      5.500000   6.0000  32.0650
     48    1 W    74     17.523000      2.759000      7.072797  14.0000 183.8400
     49    2 S    16     19.115973      3.678703      8.645595   6.0000  32.0650
     50    2 S    16     19.115973      3.678703      5.500000   6.0000  32.0650
     51    1 W    74     20.709000      2.759000      7.072797  14.0000 183.8400
     52    2 S    16     22.301973      3.678703      8.645595   6.0000  32.0650
     53    2 S    16     22.301973      3.678703      5.500000   6.0000  32.0650
     54    1 W    74     23.895000      2.759000      7.072797  14.0000 183.8400
     55    2 S    16     25.487973      3.678703      8.645595   6.0000  32.0650
     56    2 S    16     25.487973      3.678703      5.500000   6.0000  32.0650
     57    1 W    74     27.081000      2.759000      7.072797  14.0000 183.8400
     58    2 S    16     28.673973      3.678703      8.645595   6.0000  32.0650
     59    2 S    16     28.673973      3.678703      5.500000   6.0000  32.0650
     60    1 W    74     -3.186000      5.518000      7.072797  14.0000 183.8400
     61    2 S    16     -1.593027      6.437703      8.645595   6.0000  32.0650
     62    2 S    16     -1.593027      6.437703      5.500000   6.0000  32.0650
     63    1 W    74      0.000000      5.518000      7.072797  14.0000 183.8400
     64    2 S    16      1.592973      6.437703      8.645595   6.0000  32.0650
     65    2 S    16      1.592973      6.437703      5.500000   6.0000  32.0650
     66    1 W    74      3.186000      5.518000      7.072797  14.0000 183.8400
     67    2 S    16      4.778973      6.437703      8.645595   6.0000  32.0650
     68    2 S    16      4.778973      6.437703      5.500000   6.0000  32.0650
     69    1 W    74      6.372000      5.518000      7.072797  14.0000 183.8400
     70    2 S    16      7.964973      6.437703      8.645595   6.0000  32.0650
     71    2 S    16      7.964973      6.437703      5.500000   6.0000  32.0650
     72    1 W    74      9.558000      5.518000      7.072797  14.0000 183.8400
     73    2 S    16     11.150973      6.437703      8.645595   6.0000  32.0650
     74    2 S    16     11.150973      6.437703      5.500000   6.0000  32.0650
     75    1 W    74     12.744000      5.518000      7.072797  14.0000 183.8400
     76    2 S    16     14.336973      6.437703      8.645595   6.0000  32.0650
     77    2 S    16     14.336973      6.437703      5.500000   6.0000  32.0650
     78    1 W    74     15.930000      5.518000      7.072797  14.0000 183.8400
     79    2 S    16     17.522973      6.437703      8.645595   6.0000  32.0650
     80    2 S    16     17.522973      6.437703      5.500000   6.0000  32.0650
     81    1 W    74     19.116000      5.518000      7.072797  14.0000 183.8400
     82    2 S    16     20.708973      6.437703      8.645595   6.0000  32.0650
     83    2 S    16     20.708973      6.437703      5.500000   6.0000  32.0650
     84    1 W    74     22.302000      5.518000      7.072797  14.0000 183.8400
     85    2 S    16     23.894973      6.437703      8.645595   6.0000  32.0650
     86    2 S    16     23.894973      6.437703      5.500000   6.0000  32.0650
     87    1 W    74     25.488000      5.518000      7.072797  14.0000 183.8400
     88    2 S    16     27.080973      6.437703      8.645595   6.0000  32.0650
     89    2 S    16     27.080973      6.437703      5.500000   6.0000  32.0650
     90    1 W    74     -4.779000      8.277000      7.072797  14.0000 183.8400
     91    2 S    16     -3.186027      9.196703      8.645595   6.0000  32.0650
     92    2 S    16     -3.186027      9.196703      5.500000   6.0000  32.0650
     93    1 W    74     -1.593000      8.277000      7.072797  14.0000 183.8400
     94    2 S    16     -0.000027      9.196703      8.645595   6.0000  32.0650
     95    2 S    16     -0.000027      9.196703      5.500000   6.0000  32.0650
     96    1 W    74      1.593000      8.277000      7.072797  14.0000 183.8400
     97    2 S    16      3.185973      9.196703      8.645595   6.0000  32.0650
     98    2 S    16      3.185973      9.196703      5.500000   6.0000  32.0650
     99    1 W    74      4.779000      8.277000      7.072797  14.0000 183.8400
    100    2 S    16      6.371973      9.196703      8.645595   6.0000  32.0650
    101    2 S    16      6.371973      9.196703      5.500000   6.0000  32.0650
    102    1 W    74      7.965000      8.277000      7.072797  14.0000 183.8400
    103    2 S    16      9.557973      9.196703      8.645595   6.0000  32.0650
    104    2 S    16      9.557973      9.196703      5.500000   6.0000  32.0650
    105    1 W    74     11.151000      8.277000      7.072797  14.0000 183.8400
    106    2 S    16     12.743973      9.196703      8.645595   6.0000  32.0650
    107    2 S    16     12.743973      9.196703      5.500000   6.0000  32.0650
    108    1 W    74     14.337000      8.277000      7.072797  14.0000 183.8400
    109    2 S    16     15.929973      9.196703      8.645595   6.0000  32.0650
    110    2 S    16     15.929973      9.196703      5.500000   6.0000  32.0650
    111    1 W    74     17.523000      8.277000      7.072797  14.0000 183.8400
    112    2 S    16     19.115973      9.196703      8.645595   6.0000  32.0650
    113    2 S    16     19.115973      9.196703      5.500000   6.0000  32.0650
    114    1 W    74     20.709000      8.277000      7.072797  14.0000 183.8400
    115    2 S    16     22.301973      9.196703      8.645595   6.0000  32.0650
    116    2 S    16     22.301973      9.196703      5.500000   6.0000  32.0650
    117    1 W    74     23.895000      8.277000      7.072797  14.0000 183.8400
    118    2 S    16     25.487973      9.196703      8.645595   6.0000  32.0650
    119    2 S    16     25.487973      9.196703      5.500000   6.0000  32.0650
    120    1 W    74     -6.372000     11.036000      7.072797  14.0000 183.8400
    121    2 S    16     -4.779027     11.955703      8.645595   6.0000  32.0650
    122    2 S    16     -4.779027     11.955703      5.500000   6.0000  32.0650
    123    1 W    74     -3.186000     11.036000      7.072797  14.0000 183.8400
    124    2 S    16     -1.593027     11.955703      8.645595   6.0000  32.0650
    125    2 S    16     -1.593027     11.955703      5.500000   6.0000  32.0650
    126    1 W    74      0.000000     11.036000      7.072797  14.0000 183.8400
    127    2 S    16      1.592973     11.955703      8.645595   6.0000  32.0650
    128    2 S    16      1.592973     11.955703      5.500000   6.0000  32.0650
    129    1 W    74      3.186000     11.036000      7.072797  14.0000 183.8400
    130    2 S    16      4.778973     11.955703      8.645595   6.0000  32.0650
    131    2 S    16      4.778973     11.955703      5.500000   6.0000  32.0650
    132    1 W    74      6.372000     11.036000      7.072797  14.0000 183.8400
    133    2 S    16      7.964973     11.955703      8.645595   6.0000  32.0650
    134    2 S    16      7.964973     11.955703      5.500000   6.0000  32.0650
    135    1 W    74      9.558000     11.036000      7.072797  14.0000 183.8400
    136    2 S    16     11.150973     11.955703      8.645595   6.0000  32.0650
    137    2 S    16     11.150973     11.955703      5.500000   6.0000  32.0650
    138    1 W    74     12.744000     11.036000      7.072797  14.0000 183.8400
    139    2 S    16     14.336973     11.955703      8.645595   6.0000  32.0650
    140    2 S    16     14.336973     11.955703      5.500000   6.0000  32.0650
    141    1 W    74     15.930000     11.036000      7.072797  14.0000 183.8400
    142    2 S    16     17.522973     11.955703      8.645595   6.0000  32.0650
    143    2 S    16     17.522973     11.955703      5.500000   6.0000  32.0650
    144    1 W    74     19.116000     11.036000      7.072797  14.0000 183.8400
    145    2 S    16     20.708973     11.955703      8.645595   6.0000  32.0650
    146    2 S    16     20.708973     11.955703      5.500000   6.0000  32.0650
    147    1 W    74     22.302000     11.036000      7.072797  14.0000 183.8400
    148    2 S    16     23.894973     11.955703      8.645595   6.0000  32.0650
    149    2 S    16     23.894973     11.955703      5.500000   6.0000  32.0650
    150    1 W    74     -7.965000     13.795000      7.072797  14.0000 183.8400
    151    2 S    16     -6.372027     14.714703      8.645595   6.0000  32.0650
    152    2 S    16     -6.372027     14.714703      5.500000   6.0000  32.0650
    153    1 W    74     -4.779000     13.795000      7.072797  14.0000 183.8400
    154    2 S    16     -3.186027     14.714703      8.645595   6.0000  32.0650
    155    2 S    16     -3.186027     14.714703      5.500000   6.0000  32.0650
    156    1 W    74     -1.593000     13.795000      7.072797  14.0000 183.8400
    157    2 S    16     -0.000027     14.714703      8.645595   6.0000  32.0650
    158    2 S    16     -0.000027     14.714703      5.500000   6.0000  32.0650
    159    1 W    74      1.593000     13.795000      7.072797  14.0000 183.8400
    160    2 S    16      3.185973     14.714703      8.645595   6.0000  32.0650
    161    2 S    16      3.185973     14.714703      5.500000   6.0000  32.0650
    162    1 W    74      4.779000     13.795000      7.072797  14.0000 183.8400
    163    2 S    16      6.371973     14.714703      8.645595   6.0000  32.0650
    164    2 S    16      6.371973     14.714703      5.500000   6.0000  32.0650
    165    1 W    74      7.965000     13.795000      7.072797  14.0000 183.8400
    166    2 S    16      9.557973     14.714703      8.645595   6.0000  32.0650
    167    2 S    16      9.557973     14.714703      5.500000   6.0000  32.0650
    168    1 W    74     11.151000     13.795000      7.072797  14.0000 183.8400
    169    2 S    16     12.743973     14.714703      8.645595   6.0000  32.0650
    170    2 S    16     12.743973     14.714703      5.500000   6.0000  32.0650
[...]
 
 Sparsity of ^c(i,k=0): Percentage of skipped atom pairs:                0.0 %

 Compute DOS, LDOS for k-point                1 /  5,    Execution time   67.6 s
 Compute DOS, LDOS for k-point                2 /  5,    Execution time   67.7 s
 Compute DOS, LDOS for k-point                3 /  5,    Execution time   67.6 s
 Compute DOS, LDOS for k-point                4 /  5,    Execution time   67.7 s
 Compute DOS, LDOS for k-point                5 /  5,    Execution time   67.1 s
 
 SCF valence band maximum (eV):                                           -0.334
 SCF conduction band minimum (eV):                                        -0.340
 SCF indirect band gap (eV):                                              -0.006
 SCF direct band gap (eV):                                                 0.023
 
 SCF+SOC valence band maximum (eV):                                       -0.235
 SCF+SOC conduction band minimum (eV):                                    -0.304
 SCF+SOC indirect band gap (eV):                                          -0.070
 SCF+SOC direct band gap (eV):                                             0.004
 
 G0W0 valence band maximum (eV):                                          -0.101
 G0W0 conduction band minimum (eV):                                       -0.032
 G0W0 indirect band gap (eV):                                              0.069
 G0W0 direct band gap (eV):                                                0.069
 
 G0W0+SOC valence band maximum (eV):                                      -0.023
 G0W0+SOC conduction band minimum (eV):                                   -0.007
 G0W0+SOC indirect band gap (eV):                                          0.016
 G0W0+SOC direct band gap (eV):                                            0.038

 ENERGY| Total FORCE_EVAL ( QS ) energy [a.u.]:            -8895.882985534150066

 -------------------------------------------------------------------------------
 -                                                                             -
 -                                DBCSR STATISTICS                             -
 -                                                                             -
 -------------------------------------------------------------------------------
 COUNTER                                    TOTAL       BLAS       SMM       ACC
 flops    17 x    17 x    17            389119426     100.0%      0.0%      0.0%
 flops    35 x    17 x    17            402577000     100.0%      0.0%      0.0%
 flops    17 x    17 x    35            402577000     100.0%      0.0%      0.0%
 flops    35 x    17 x    35            416500000     100.0%      0.0%      0.0%
 flops    17 x    16 x    17            732460096     100.0%      0.0%      0.0%
 flops    35 x    16 x    17            757792000     100.0%      0.0%      0.0%
 flops    17 x    16 x    35            757792000     100.0%      0.0%      0.0%
 flops    35 x    16 x    35            784000000     100.0%      0.0%      0.0%
 flops    17 x    17 x    48           1656316800     100.0%      0.0%      0.0%
 flops    17 x    17 x    49           1690823400     100.0%      0.0%      0.0%
 flops    35 x    17 x    48           1705032000     100.0%      0.0%      0.0%
 flops    17 x    35 x    48           1705032000     100.0%      0.0%      0.0%
 flops    35 x    17 x    49           1740553500     100.0%      0.0%      0.0%
 flops    17 x    35 x    49           1740553500     100.0%      0.0%      0.0%
 flops    35 x    35 x    48           1781640000     100.0%      0.0%      0.0%
 flops    35 x    35 x    49           1818757500     100.0%      0.0%      0.0%
 flops    17 x    17 x    32          15458956800     100.0%      0.0%      0.0%
 flops    35 x    17 x    32          15913632000     100.0%      0.0%      0.0%
 flops    17 x    35 x    32          15913632000     100.0%      0.0%      0.0%
 flops    35 x    35 x    32          16628640000     100.0%      0.0%      0.0%
 flops    17 x    17 x    64          70669516800     100.0%      0.0%      0.0%
 flops    35 x    17 x    64          72748032000     100.0%      0.0%      0.0%
 flops    17 x    35 x    64          72748032000     100.0%      0.0%      0.0%
 flops    35 x    35 x    64          76016640000     100.0%      0.0%      0.0%
 flops    17 x    32 x    17          87895211520     100.0%      0.0%      0.0%
 flops    35 x    32 x    17          90935040000     100.0%      0.0%      0.0%
 flops    17 x    32 x    35          90935040000     100.0%      0.0%      0.0%
 flops    35 x    32 x    35          94080000000     100.0%      0.0%      0.0%
 flops inhomo. stacks                           0       0.0%      0.0%      0.0%
 flops total                       738.423899E+09     100.0%      0.0%      0.0%
 flops max/rank                      4.701298E+09     100.0%      0.0%      0.0%
 matmuls inhomo. stacks                         0       0.0%      0.0%      0.0%
 matmuls total                           17454723     100.0%      0.0%      0.0%
 number of processed stacks                168192     100.0%      0.0%      0.0%
 average stack size                                   103.8       0.0       0.0
 marketing flops                     1.105559E+12
 -------------------------------------------------------------------------------
 # multiplications                              9
 max memory usage/rank               1.043116E+09
 # max total images/rank                        3
 # max 3D layers                                1
 # MPI messages exchanged                   76032
 MPI messages size (bytes):
  total size                        40.500675E+09
  min size                          56.832000E+03
  max size                           2.819832E+06
  average size                     532.679312E+03
 MPI breakdown and total messages size (bytes):
             size <=      128                   0                        0
       128 < size <=     8192                   0                        0
      8192 < size <=    32768                   0                        0
     32768 < size <=   131072               13419               1100819944
    131072 < size <=  4194304               62613              39399853336
   4194304 < size <= 16777216                   0                        0
  16777216 < size                               0                        0
 -------------------------------------------------------------------------------

 *** WARNING in dbcsr_mm.F:291 :: Using a non-square number of MPI ranks ***
 *** might lead to poor performance. Used ranks: 192 Suggested: 196 400  ***

 -------------------------------------------------------------------------------
 -                                                                             -
 -                      DBCSR MESSAGE PASSING PERFORMANCE                      -
 -                                                                             -
 -------------------------------------------------------------------------------
 ROUTINE             CALLS      AVE VOLUME [Bytes]
 MP_Bcast               29                     12.
 MP_Allreduce          122                     18.
 MP_Alltoall          1060                 888559.
 MP_ISend              864                 255534.
 MP_IRecv              864                 252335.
 -------------------------------------------------------------------------------

 -------------------------------------------------------------------------------
 -                                                                             -
 -                                DBM STATISTICS                               -
 -                                                                             -
 -------------------------------------------------------------------------------
    M  x    N  x    K                                          COUNT     PERCENT
 -------------------------------------------------------------------------------

 -------------------------------------------------------------------------------
 -                                                                             -
 -                                GRID STATISTICS                              -
 -                                                                             -
 -------------------------------------------------------------------------------
 LP    KERNEL             BACKEND                              COUNT     PERCENT
 4     collocate general  CPU                                4189776      21.95%
 4     integrate general  CPU                                4189776      21.95%
 5     collocate general  CPU                                4169448      21.84%
 5     integrate general  CPU                                4169448      21.84%
 6     collocate general  CPU                                1071600       5.61%
 6     integrate general  CPU                                1071600       5.61%
 0     collocate general  CPU                                 114816       0.60%
 0     integrate general  CPU                                 114816       0.60%
 -------------------------------------------------------------------------------

 MEMORY| Estimated peak process memory [MiB]                                1779

 -------------------------------------------------------------------------------
 -                                                                             -
 -                         MESSAGE PASSING PERFORMANCE                         -
 -                                                                             -
 -------------------------------------------------------------------------------

 ROUTINE             CALLS      AVE VOLUME [Bytes]
 MP_Group               30
 MP_Bcast            16203                2001597.
 MP_Allreduce          864                  19324.
 MP_Sync                31
 MP_Alltoall           110               20968333.
 MP_SendRecv          3438                 189696.
 MP_ISendRecv         3438                 189696.
 MP_Wait              4046
 MP_comm_split          18
 MP_ISend              480                2572301.
 MP_IRecv              480                2572301.
 -------------------------------------------------------------------------------


 -------------------------------------------------------------------------------
 -                                                                             -
 -                           R E F E R E N C E S                               -
 -                                                                             -
 -------------------------------------------------------------------------------
 
 CP2K version 2023.2 (Development Version), the CP2K developers group (2023).
 CP2K is freely available from https://www.cp2k.org/ .

 Graml, Maximilian; Zollner, Klaus; Hernangmez-Prez, Daniel;
 Faria Junior, Paulo Eduardo; Wilhelm, Jan. arXiv, 2306.16066 (2023). 
 Low-scaling GW algorithm applied to twisted transition-metal
 dichalcogenide heterobilayers.
 https://doi.org/10.48550/arXiv.2306.16066

 Kuehne,Thomas D.; Iannuzzi,Marcella; Del Ben,Mauro;
 Rybkin,Vladimir V.; Seewald,Patrick; Stein,Frederick; Laino,Teodoro;
 Khaliullin,Rustam Z.; Schuett,Ole; Schiffmann,Florian; Golze,Dorothea;
 Wilhelm,Jan; Chulkov,Sergey; Bani-Hashemian,Mohammad Hossein;
 Weber,Valery; Borstnik,Urban; Taillefumier,Mathieu;
 Jakobovits,Alice Shoshana; Lazzaro,Alfio; Pabst,Hans; Mueller,Tiziano;
 Schade,Robert; Guidon,Manuel; Andermatt,Samuel; Holmberg,Nico;
 Schenter,Gregory K.; Hehn,Anna; Bussy,Augustin; Belleflamme,Fabian;
 Tabacchi,Gloria; Gloess,Andreas; Lass,Michael; Bethune,Iain;
 Mundy,Christopher J.; Plessl,Christian; Watkins,Matt;
 VandeVondele,Joost; Krack,Matthias; Hutter,Juerg. 
 The Journal of Chemical Physics, 152 (19), (2020). 
 CP2K: An electronic structure and molecular dynamics software package -
 Quickstep: Efficient and accurate electronic structure calculations.
 https://doi.org/10.1063/5.0007045

 Schuett, Ole; Messmer, Peter; Hutter, Juerg; VandeVondele, Joost. 
 Electronic Structure Calculations on Graphics Processing Units, John
 Wiley & Sons, Ltd, 173-190 (2016). 
 GPU-Accelerated Sparse Matrix-Matrix Multiplication for
 Linear Scaling Density Functional Theory.
 https://doi.org/10.1002/9781118670712.ch8

 Borstnik, U; VandeVondele, J; Weber, V; Hutter, J. 
 PARALLEL COMPUTING, 40 (5-6), 47-58 (2014). 
 Sparse matrix multiplication: The distributed block-compressed sparse
 row library.
 https://doi.org/10.1016/j.parco.2014.03.012

 Hutter, J; Iannuzzi, M; Schiffmann, F; VandeVondele, J. 
 WIREs Comput Mol Sci., 4 (1), 15-25 (2014). 
 CP2K: atomistic simulations of condensed matter systems.
 https://doi.org/10.1002/wcms.1159

 VandeVondele, J; Hutter, J. 
 JOURNAL OF CHEMICAL PHYSICS, 127 (11), 114105 (2007). 
 Gaussian basis sets for accurate calculations on molecular systems in
 gas and condensed phases.
 https://doi.org/10.1063/1.2770708

 Krack, M. 
 THEORETICAL CHEMISTRY ACCOUNTS, 114 (1-3), 145-152 (2005). 
 Pseudopotentials for H to Kr optimized for gradient-corrected
 exchange-correlation functionals.
 https://doi.org/10.1007/s00214-005-0655-y

 VandeVondele, J; Krack, M; Mohamed, F; Parrinello, M; Chassaing, T;
 Hutter, J. COMPUTER PHYSICS COMMUNICATIONS, 167 (2), 103-128 (2005). 
 QUICKSTEP: Fast and accurate density functional calculations using a
 mixed Gaussian and plane waves approach.
 https://doi.org/10.1016/j.cpc.2004.12.014

 Frigo, M; Johnson, SG. 
 PROCEEDINGS OF THE IEEE, 93 (2), 216-231 (2005). 
 The design and implementation of FFTW3.
 https://doi.org/10.1109/JPROC.2004.840301

 Hartwigsen, C; Goedecker, S; Hutter, J. 
 PHYSICAL REVIEW B, 58 (7), 3641-3662 (1998). 
 Relativistic separable dual-space Gaussian pseudopotentials from H to Rn.
 https://doi.org/10.1103/PhysRevB.58.3641

 Lippert, G; Hutter, J; Parrinello, M. 
 MOLECULAR PHYSICS, 92 (3), 477-487 (1997). 
 A hybrid Gaussian and plane wave density functional scheme.
 https://doi.org/10.1080/002689797170220

 Goedecker, S; Teter, M; Hutter, J. 
 PHYSICAL REVIEW B, 54 (3), 1703-1710 (1996). 
 Separable dual-space Gaussian pseudopotentials.
 https://doi.org/10.1103/PhysRevB.54.1703


 -------------------------------------------------------------------------------
 -                                                                             -
 -                                T I M I N G                                  -
 -                                                                             -
 -------------------------------------------------------------------------------
 SUBROUTINE                       CALLS  ASD         SELF TIME        TOTAL TIME
                                MAXIMUM       AVERAGE  MAXIMUM  AVERAGE  MAXIMUM
 CP2K                                 1  1.0    0.010    0.015 1053.793 1053.794
 qs_energies                          1  2.0    0.002    0.011 1052.821 1053.455
 qs_energies_properties               1  3.0    0.000    0.000  877.819  878.455
 post_scf_bandstructure               1  4.0    0.000    0.001  877.819  878.454
 gw                                   1  5.0    0.000    0.002  517.825  517.826
 dos_pdos_ldos                        1  5.0    0.013    0.021  337.478  338.111
 compute_QP_energies                  1  6.0    0.004    0.005  301.543  301.546
 parallel_gemm_cfm                  500  8.8    0.002    0.003  240.387  250.076
 parallel_gemm_cfm_gemm             500  9.8    0.001    0.002  240.385  250.075
 cp_cfm_gemm                        500 10.8  240.384  250.073  240.384  250.073
 SOC                                 10  6.0    0.051    0.064  245.055  249.068
 to_ikp_and_mo                      220  7.0    0.054    0.059  238.993  239.172
 fm_Gamma_ao_to_cfm_ikp_mo          220  8.0    0.004    0.006  236.881  238.773
 cp_cfm_heevd                        30  7.3  219.219  226.517  219.219  226.517
 create_and_init_bs_env_for_gw        1  6.0    0.002    0.003  186.570  186.589
 create_tensors                       1  7.0    0.001    0.002  155.696  156.173
 scf_env_do_scf                       1  3.0    0.000    0.001  131.262  131.313
 scf_env_do_scf_inner_loop            2  4.0    0.001    0.001  131.262  131.313
 cp_cfm_geeig                        20  6.5    0.001    0.001  118.155  121.745
 cfm_ikp_from_fm_Gamma              345  8.4   95.091  111.965   95.091  111.965
 qs_ks_build_kohn_sham_matrix         3  7.3    0.001    0.001   96.974   97.425
 sum_up_and_integrate                 3  8.3    0.000    0.000   96.277   96.280
 integrate_v_rspace                   6  9.3    0.000    0.000   96.273   96.276
 grid_integrate_task_list             6 10.3   89.204   91.784   89.204   91.784
 qs_rho_update_rho_low                3  5.0    0.000    0.000   88.880   88.883
 calculate_rho_elec                   6  6.0    0.008    0.011   88.880   88.882
 grid_collocate_task_list             6  7.0   85.411   87.035   85.411   87.035
 mp_sync                             31  8.3   81.297   86.503   81.297   86.503
 build_3c_integrals                  18  8.0   42.561   46.620   73.483   80.596
 qs_ks_update_qs_env                  2  5.0    0.000    0.000   66.338   66.339
 rebuild_ks_matrix                    2  6.0    0.000    0.000   66.335   66.336
 cfm_ikp_from_cfm_spinor_Gamma       10  7.0    0.032    0.042   38.137   40.484
 cp_cfm_triangular_multiply          60  7.5   37.793   38.146   37.793   38.146
 init_scf_run                         1  3.0    0.000    0.000   34.366   34.368
 scf_env_initial_rho_setup            1  4.0    0.000    0.000   34.221   34.221
 compute_fm_V_xc_Gamma                1  7.0    0.000    0.000   30.681   31.132
 mp_bcast_dm                      13503  9.3   28.637   28.783   28.637   28.783
 fm_read                             52  7.2    0.000    0.033   28.561   28.600
 cp_fm_read_unformatted              52  8.2    0.155   14.585   28.561   28.600
 libxsmm_abc_contract            218122  9.0   24.816   27.463   24.816   27.463
 cp_fm_to_fm_submat                 288  8.8   14.508   19.949   14.508   19.949
 get_Sigma_c                          1  6.0    0.000    0.001   16.686   16.690
 get_cfm_submat                      40  8.0    0.001    0.002   12.143   16.196
 compute_proj_mo_on_kind             10  6.0    0.069    0.078   15.703   15.894
 cp_cfm_cholesky_decompose           25  7.4   12.129   15.693   12.129   15.693
 cp_fm_syevd                          8  7.5    0.000    0.000   15.586   15.620
 cp_fm_redistribute_end               8  8.5    7.798   15.568    7.809   15.568
 cp_fm_syevd_base                     8  8.5    7.687   15.409    7.687   15.409
 add_to_DOS_PDOS                     30  6.3   12.935   15.166   12.935   15.166
 build_core_ppnl                      2  6.0   12.550   13.307   12.550   13.307
 get_W_MIC                            1  6.0    0.000    0.000   12.238   12.338
 read_W_MIC_time                      1  7.0    0.000    0.001   12.238   12.338
 create_and_init_bs_env               1  5.0    0.000    0.000   11.353   11.354
 soc                                  1  5.0    0.000    0.000   11.164   11.165
 V_SOC_xyz_from_pseudopotential       1  6.0    0.000    0.000   10.696   10.698
 -------------------------------------------------------------------------------

 The number of warnings for this run is : 2
 
 -------------------------------------------------------------------------------
  **** **** ******  **  PROGRAM ENDED AT                 2023-11-25 21:41:55.895
 ***** ** ***  *** **   PROGRAM RAN ON                              i01r04c06s02
 **    ****   ******    PROGRAM RAN BY                                   di76zil
 ***** **    ** ** **   PROGRAM PROCESS ID                               2748577
  **** **  *******  **  PROGRAM STOPPED IN /hppfs/work/pn36zo/di76zil/29_scalabl
                                           e_GW/11_GW+SOC/05_WS2_vacancy_10x10/2
                                           _SOC_window_20_eV
