
 DBCSR| CPU Multiplication driver                                           XSMM (U)
 DBCSR| Multrec recursion limit                                              512 (U)
 DBCSR| Multiplication stack size                                           1000 (D)
 DBCSR| Maximum elements for images                                    UNLIMITED (U)
 DBCSR| Multiplicative factor virtual images                                   1 (U)
 DBCSR| Use multiplication densification                                       T (D)
 DBCSR| Multiplication size stacks                                             3 (U)
 DBCSR| Use memory pool for CPU allocation                                     F (U)
 DBCSR| Number of 3D layers                                               SINGLE (U)
 DBCSR| Use MPI memory allocation                                              F (U)
 DBCSR| Use RMA algorithm                                                      F (U)
 DBCSR| Use Communication thread                                               T (U)
 DBCSR| Communication thread load                                             60 (D)
 DBCSR| MPI: My process id                                                     0
 DBCSR| MPI: Number of processes                                             512
 DBCSR| OMP: Current number of threads                                         8
 DBCSR| OMP: Max number of threads                                             8
 DBCSR| Split modifier for TAS multiplication algorithm                  1.0E+00 (U)


  **** **** ******  **  PROGRAM STARTED AT               2023-11-23 09:44:09.505
 ***** ** ***  *** **   PROGRAM STARTED ON                              n2cn0302
 **    ****   ******    PROGRAM STARTED BY                              eprop2d1
 ***** **    ** ** **   PROGRAM PROCESS ID                                 17488
  **** **  *******  **  PROGRAM STARTED IN /scratch/hpc-prf-eprop2d/eprop2d1_Jan
                                           /17_open_shell/5_WS2_charged_vacancy/
                                           3_neg_charged_S_vacancy_WS2_10x10

 CP2K| version string:                 CP2K version 2023.2 (Development Version)
 CP2K| source code revision number:                                  git:fcf43b6
 CP2K| cp2kflags: omp libint fftw3 libxc elpa parallel scalapack cosma xsmm plum
 CP2K|            ed2 spglib libvori libbqb libvdwxc
 CP2K| is freely available from                            https://www.cp2k.org/
 CP2K| Program compiled at                          Tue Nov 21 12:20:07 CET 2023
 CP2K| Program compiled on                                              n2login2
 CP2K| Program compiled for                                                local
 CP2K| Data directory path    /opt/software/pc2/EB-SW/software/CP2K/2023.1-foss-
 CP2K| Input file name                                                    GW.inp

 GLOBAL| Force Environment number                                              1
 GLOBAL| Basis set file name            /scratch/hpc-prf-eprop2d/eprop2d1_Jan/16
 GLOBAL| Potential file name            /scratch/hpc-prf-eprop2d/eprop2d1_Jan/16
 GLOBAL| MM Potential file name                                     MM_POTENTIAL
 GLOBAL| Coordinate file name                                          struc.xyz
 GLOBAL| Method name                                                        CP2K
 GLOBAL| Project name                                                       MoS2
 GLOBAL| Run type                                                         ENERGY
 GLOBAL| FFT library                                                       FFTW3
 GLOBAL| Diagonalization library                                            ELPA
 GLOBAL| DGEMM library                                                      BLAS
 GLOBAL| Minimum number of eigenvectors for ELPA usage                        16
 GLOBAL| Orthonormality check for eigenvectors                          DISABLED
 GLOBAL| Matrix multiplication library                                     COSMA
 GLOBAL| All-to-all communication in single precision                          F
 GLOBAL| FFTs using library dependent lengths                                  F
 GLOBAL| Grid backend                                                       AUTO
 GLOBAL| Global print level                                               MEDIUM
 GLOBAL| MPI I/O enabled                                                       T
 GLOBAL| Total number of message passing processes                           512
 GLOBAL| Number of threads for this process                                    8
 GLOBAL| This output is from process                                           0
 GLOBAL| Stack size for threads created by OpenMP (OMP_STACKSIZE)        default
 GLOBAL| CPU model name                          AMD EPYC 7763 64-Core Processor
 GLOBAL| CPUID                                                              1002
 GLOBAL| Compiled for CPUID                                                    0

 *** HINT in environment.F:904 :: The compiler target flags (generic) used ***
 *** to build this binary cannot exploit all extensions of this CPU model  ***
 *** (x86_avx2). Consider compiler target flags as part of FCFLAGS and     ***
 *** CFLAGS (ARCH file).                                                   ***


 MEMORY| system memory details [Kb]
 MEMORY|                        rank 0           min           max       average
 MEMORY| MemTotal            263903780     263903776     263903792     263903778
 MEMORY| MemFree             254611476     253828948     254648152     254416241
 MEMORY| Buffers                103476        101640        114116        105832
 MEMORY| Cached                3160304       3146228       3911724       3338668
 MEMORY| Slab                   843128        828388        989052        847738
 MEMORY| SReclaimable           163932        159668        202272        165934
 MEMORY| MemLikelyFree       258039188     257780532     258070304     258026676


 *** Fundamental physical constants (SI units) ***

 *** Literature: B. J. Mohr and B. N. Taylor,
 ***             CODATA recommended values of the fundamental physical
 ***             constants: 2006, Web Version 5.1
 ***             http://physics.nist.gov/constants

 Speed of light in vacuum [m/s]                             2.99792458000000E+08
 Magnetic constant or permeability of vacuum [N/A**2]       1.25663706143592E-06
 Electric constant or permittivity of vacuum [F/m]          8.85418781762039E-12
 Planck constant (h) [J*s]                                  6.62606896000000E-34
 Planck constant (h-bar) [J*s]                              1.05457162825177E-34
 Elementary charge [C]                                      1.60217648700000E-19
 Electron mass [kg]                                         9.10938215000000E-31
 Electron g factor [ ]                                     -2.00231930436220E+00
 Proton mass [kg]                                           1.67262163700000E-27
 Fine-structure constant                                    7.29735253760000E-03
 Rydberg constant [1/m]                                     1.09737315685270E+07
 Avogadro constant [1/mol]                                  6.02214179000000E+23
 Boltzmann constant [J/K]                                   1.38065040000000E-23
 Atomic mass unit [kg]                                      1.66053878200000E-27
 Bohr radius [m]                                            5.29177208590000E-11

 *** Conversion factors ***

 [u] -> [a.u.]                                              1.82288848426455E+03
 [Angstrom] -> [Bohr] = [a.u.]                              1.88972613288564E+00
 [a.u.] = [Bohr] -> [Angstrom]                              5.29177208590000E-01
 [a.u.] -> [s]                                              2.41888432650478E-17
 [a.u.] -> [fs]                                             2.41888432650478E-02
 [a.u.] -> [J]                                              4.35974393937059E-18
 [a.u.] -> [N]                                              8.23872205491840E-08
 [a.u.] -> [K]                                              3.15774647902944E+05
 [a.u.] -> [kJ/mol]                                         2.62549961709828E+03
 [a.u.] -> [kcal/mol]                                       6.27509468713739E+02
 [a.u.] -> [Pa]                                             2.94210107994716E+13
 [a.u.] -> [bar]                                            2.94210107994716E+08
 [a.u.] -> [atm]                                            2.90362800883016E+08
 [a.u.] -> [eV]                                             2.72113838565563E+01
 [a.u.] -> [Hz]                                             6.57968392072181E+15
 [a.u.] -> [1/cm] (wave numbers)                            2.19474631370540E+05
 [a.u./Bohr**2] -> [1/cm]                                   5.14048714338585E+03


 CELL_TOP| Volume [angstrom^3]:                                     13185.261000
 CELL_TOP| Vector a [angstrom    31.860     0.000     0.000   |a| =    31.860000
 CELL_TOP| Vector b [angstrom   -15.930    27.590     0.000   |b| =    31.858641
 CELL_TOP| Vector c [angstrom     0.000     0.000    15.000   |c| =    15.000000
 CELL_TOP| Angle (b,c), alpha [degree]:                                90.000000
 CELL_TOP| Angle (a,c), beta  [degree]:                                90.000000
 CELL_TOP| Angle (a,b), gamma [degree]:                               120.001411
 CELL_TOP| Numerically orthorhombic:                                          NO
 CELL_TOP| Periodicity                                                        XY

 GENERATE|  Preliminary Number of Bonds generated:                             0
 GENERATE|  Achieved consistency in connectivity generation.

 CELL| Volume [angstrom^3]:                                         13185.261000
 CELL| Vector a [angstrom]:      31.860     0.000     0.000   |a| =    31.860000
 CELL| Vector b [angstrom]:     -15.930    27.590     0.000   |b| =    31.858641
 CELL| Vector c [angstrom]:       0.000     0.000    15.000   |c| =    15.000000
 CELL| Angle (b,c), alpha [degree]:                                    90.000000
 CELL| Angle (a,c), beta  [degree]:                                    90.000000
 CELL| Angle (a,b), gamma [degree]:                                   120.001411
 CELL| Numerically orthorhombic:                                              NO
 CELL| Periodicity                                                            XY

 CELL_REF| Volume [angstrom^3]:                                     13185.261000
 CELL_REF| Vector a [angstrom    31.860     0.000     0.000   |a| =    31.860000
 CELL_REF| Vector b [angstrom   -15.930    27.590     0.000   |b| =    31.858641
 CELL_REF| Vector c [angstrom     0.000     0.000    15.000   |c| =    15.000000
 CELL_REF| Angle (b,c), alpha [degree]:                                90.000000
 CELL_REF| Angle (a,c), beta  [degree]:                                90.000000
 CELL_REF| Angle (a,b), gamma [degree]:                               120.001411
 CELL_REF| Numerically orthorhombic:                                          NO
 CELL_REF| Periodicity                                                        XY

 *******************************************************************************
 *******************************************************************************
 **                                                                           **
 **     #####                         ##              ##                      **
 **    ##   ##            ##          ##              ##                      **
 **   ##     ##                       ##            ######                    **
 **   ##     ##  ##   ##  ##   #####  ##  ##   ####   ##    #####    #####    **
 **   ##     ##  ##   ##  ##  ##      ## ##   ##      ##   ##   ##  ##   ##   **
 **   ##  ## ##  ##   ##  ##  ##      ####     ###    ##   ######   ######    **
 **    ##  ###   ##   ##  ##  ##      ## ##      ##   ##   ##       ##        **
 **     #######   #####   ##   #####  ##  ##  ####    ##    #####   ##        **
 **           ##                                                    ##        **
 **                                                                           **
 **                                                ... make the atoms dance   **
 **                                                                           **
 **            Copyright (C) by CP2K developers group (2000-2023)             **
 **                      J. Chem. Phys. 152, 194103 (2020)                    **
 **                                                                           **
 *******************************************************************************

 DFT| Spin unrestricted (spin-polarized) Kohn-Sham calculation               UKS
 DFT| Multiplicity                                                             2
 DFT| Number of spin states                                                    2
 DFT| Charge                                                                   1
 DFT| Self-interaction correction (SIC)                                       NO
 DFT| Cutoffs: density                                              1.000000E-10
 DFT|          gradient                                             1.000000E-10
 DFT|          tau                                                  1.000000E-10
 DFT|          cutoff_smoothing_range                               0.000000E+00
 DFT| XC density smoothing                                                  NONE
 DFT| XC derivatives                                                          PW

 FUNCTIONAL| PADE:
 FUNCTIONAL| S. Goedecker, M. Teter and J. Hutter, Phys. Rev. B 54, 1703 (1996)


 QS| Method:                                                                 GPW
 QS| Density plane wave grid type                        NON-SPHERICAL FULLSPACE
 QS| Number of grid levels:                                                    4
 QS| Density cutoff [a.u.]:                                                250.0
 QS| Multi grid cutoff [a.u.]: 1) grid level                               250.0
 QS|                           2) grid level                                83.3
 QS|                           3) grid level                                27.8
 QS|                           4) grid level                                 9.3
 QS| Grid level progression factor:                                          3.0
 QS| Relative density cutoff [a.u.]:                                        50.0
 QS| Interaction thresholds: eps_pgf_orb:                                1.0E-40
 QS|                         eps_filter_matrix:                          0.0E+00
 QS|                         eps_core_charge:                            1.0E-42
 QS|                         eps_rho_gspace:                             1.0E-40
 QS|                         eps_rho_rspace:                             1.0E-40
 QS|                         eps_gvg_rspace:                             1.0E-20
 QS|                         eps_ppl:                                    1.0E-02
 QS|                         eps_ppnl:                                   1.0E-22


 ATOMIC KIND INFORMATION

  1. Atomic kind: W                                     Number of atoms:     100

     Orbital Basis Set                                  TZVP-MOLOPT-GTH_upscaled

       Number of orbital shell sets:                                           1
       Number of orbital shells:                                              11
       Number of primitive Cartesian functions:                                7
       Number of Cartesian basis functions:                                   41
       Number of spherical basis functions:                                   35
       Norm type:                                                              2

       Normalised Cartesian orbitals:

                        Set   Shell   Orbital            Exponent    Coefficient

                          1       1    2s                3.103254       0.432128
                                                         2.893835       0.497697
                                                         1.106151      -0.752121
                                                         0.501100      -0.216922
                                                         0.214447       0.032823
                                                         0.140000       0.053490
                                                         0.120000      -0.061173

                          1       2    3s                3.103254      -0.813729
                                                         2.893835       0.639864
                                                         1.106151       0.039972
                                                         0.501100      -0.059528
                                                         0.214447       0.077002
                                                         0.140000      -0.420972
                                                         0.120000       0.481432

                          1       3    4s                3.103254       1.541003
                                                         2.893835      -0.927602
                                                         1.106151      -0.272969
                                                         0.501100       0.064402
                                                         0.214447      -0.275240
                                                         0.140000      -0.858027
                                                         0.120000       0.981259

                          1       4    5s                3.103254       1.221199
                                                         2.893835      -1.384344
                                                         1.106151       0.313815
                                                         0.501100      -0.289021
                                                         0.214447       0.251699
                                                         0.140000      -0.157712
                                                         0.120000       0.180363

                          1       5    3px               3.103254       6.587488
                                                         2.893835      -5.430631
                                                         1.106151      -0.972560
                                                         0.501100      -0.261614
                                                         0.214447      -0.013936
                                                         0.140000      -0.008290
                                                         0.120000       0.008777
                          1       5    3py               3.103254       6.587488
                                                         2.893835      -5.430631
                                                         1.106151      -0.972560
                                                         0.501100      -0.261614
                                                         0.214447      -0.013936
                                                         0.140000      -0.008290
                                                         0.120000       0.008777
                          1       5    3pz               3.103254       6.587488
                                                         2.893835      -5.430631
                                                         1.106151      -0.972560
                                                         0.501100      -0.261614
                                                         0.214447      -0.013936
                                                         0.140000      -0.008290
                                                         0.120000       0.008777

                          1       6    4px               3.103254      -0.215503
                                                         2.893835       0.319008
                                                         1.106151      -0.250093
                                                         0.501100      -0.016350
                                                         0.214447       0.058331
                                                         0.140000      -0.317701
                                                         0.120000       0.336378
                          1       6    4py               3.103254      -0.215503
                                                         2.893835       0.319008
                                                         1.106151      -0.250093
                                                         0.501100      -0.016350
                                                         0.214447       0.058331
                                                         0.140000      -0.317701
                                                         0.120000       0.336378
                          1       6    4pz               3.103254      -0.215503
                                                         2.893835       0.319008
                                                         1.106151      -0.250093
                                                         0.501100      -0.016350
                                                         0.214447       0.058331
                                                         0.140000      -0.317701
                                                         0.120000       0.336378

                          1       7    5px               3.103254       1.477813
                                                         2.893835      -1.135541
                                                         1.106151       1.380857
                                                         0.501100       0.146858
                                                         0.214447      -0.336829
                                                         0.140000      -0.340586
                                                         0.120000       0.360608
                          1       7    5py               3.103254       1.477813
                                                         2.893835      -1.135541
                                                         1.106151       1.380857
                                                         0.501100       0.146858
                                                         0.214447      -0.336829
                                                         0.140000      -0.340586
                                                         0.120000       0.360608
                          1       7    5pz               3.103254       1.477813
                                                         2.893835      -1.135541
                                                         1.106151       1.380857
                                                         0.501100       0.146858
                                                         0.214447      -0.336829
                                                         0.140000      -0.340586
                                                         0.120000       0.360608

                          1       8    4dx2              3.103254      -0.073730
                                                         2.893835       0.215072
                                                         1.106151       0.648029
                                                         0.501100       0.200612
                                                         0.214447       0.032511
                                                         0.140000      -0.040198
                                                         0.120000       0.039404
                          1       8    4dxy              3.103254      -0.127705
                                                         2.893835       0.372516
                                                         1.106151       1.122419
                                                         0.501100       0.347470
                                                         0.214447       0.056311
                                                         0.140000      -0.069626
                                                         0.120000       0.068250
                          1       8    4dxz              3.103254      -0.127705
                                                         2.893835       0.372516
                                                         1.106151       1.122419
                                                         0.501100       0.347470
                                                         0.214447       0.056311
                                                         0.140000      -0.069626
                                                         0.120000       0.068250
                          1       8    4dy2              3.103254      -0.073730
                                                         2.893835       0.215072
                                                         1.106151       0.648029
                                                         0.501100       0.200612
                                                         0.214447       0.032511
                                                         0.140000      -0.040198
                                                         0.120000       0.039404
                          1       8    4dyz              3.103254      -0.127705
                                                         2.893835       0.372516
                                                         1.106151       1.122419
                                                         0.501100       0.347470
                                                         0.214447       0.056311
                                                         0.140000      -0.069626
                                                         0.120000       0.068250
                          1       8    4dz2              3.103254      -0.073730
                                                         2.893835       0.215072
                                                         1.106151       0.648029
                                                         0.501100       0.200612
                                                         0.214447       0.032511
                                                         0.140000      -0.040198
                                                         0.120000       0.039404

                          1       9    5dx2              3.103254       0.120212
                                                         2.893835      -0.247034
                                                         1.106151      -0.585668
                                                         0.501100      -0.200109
                                                         0.214447       0.050368
                                                         0.140000      -0.108711
                                                         0.120000       0.106563
                          1       9    5dxy              3.103254       0.208214
                                                         2.893835      -0.427875
                                                         1.106151      -1.014406
                                                         0.501100      -0.346599
                                                         0.214447       0.087239
                                                         0.140000      -0.188293
                                                         0.120000       0.184573
                          1       9    5dxz              3.103254       0.208214
                                                         2.893835      -0.427875
                                                         1.106151      -1.014406
                                                         0.501100      -0.346599
                                                         0.214447       0.087239
                                                         0.140000      -0.188293
                                                         0.120000       0.184573
                          1       9    5dy2              3.103254       0.120212
                                                         2.893835      -0.247034
                                                         1.106151      -0.585668
                                                         0.501100      -0.200109
                                                         0.214447       0.050368
                                                         0.140000      -0.108711
                                                         0.120000       0.106563
                          1       9    5dyz              3.103254       0.208214
                                                         2.893835      -0.427875
                                                         1.106151      -1.014406
                                                         0.501100      -0.346599
                                                         0.214447       0.087239
                                                         0.140000      -0.188293
                                                         0.120000       0.184573
                          1       9    5dz2              3.103254       0.120212
                                                         2.893835      -0.247034
                                                         1.106151      -0.585668
                                                         0.501100      -0.200109
                                                         0.214447       0.050368
                                                         0.140000      -0.108711
                                                         0.120000       0.106563

                          1      10    6dx2              3.103254      10.228451
                                                         2.893835     -10.154808
                                                         1.106151       0.833144
                                                         0.501100      -0.004804
                                                         0.214447      -0.129172
                                                         0.140000      -0.186637
                                                         0.120000       0.182950
                          1      10    6dxy              3.103254      17.716196
                                                         2.893835     -17.588644
                                                         1.106151       1.443047
                                                         0.501100      -0.008321
                                                         0.214447      -0.223732
                                                         0.140000      -0.323264
                                                         0.120000       0.316879
                          1      10    6dxz              3.103254      17.716196
                                                         2.893835     -17.588644
                                                         1.106151       1.443047
                                                         0.501100      -0.008321
                                                         0.214447      -0.223732
                                                         0.140000      -0.323264
                                                         0.120000       0.316879
                          1      10    6dy2              3.103254      10.228451
                                                         2.893835     -10.154808
                                                         1.106151       0.833144
                                                         0.501100      -0.004804
                                                         0.214447      -0.129172
                                                         0.140000      -0.186637
                                                         0.120000       0.182950
                          1      10    6dyz              3.103254      17.716196
                                                         2.893835     -17.588644
                                                         1.106151       1.443047
                                                         0.501100      -0.008321
                                                         0.214447      -0.223732
                                                         0.140000      -0.323264
                                                         0.120000       0.316879
                          1      10    6dz2              3.103254      10.228451
                                                         2.893835     -10.154808
                                                         1.106151       0.833144
                                                         0.501100      -0.004804
                                                         0.214447      -0.129172
                                                         0.140000      -0.186637
                                                         0.120000       0.182950

                          1      11    5fx3              3.103254      -2.200951
                                                         2.893835       2.432659
                                                         1.106151      -0.371072
                                                         0.501100      -0.177479
                                                         0.214447      -0.017113
                                                         0.140000       0.003424
                                                         0.120000      -0.003108
                          1      11    5fx2y             3.103254      -4.921477
                                                         2.893835       5.439590
                                                         1.106151      -0.829742
                                                         0.501100      -0.396854
                                                         0.214447      -0.038265
                                                         0.140000       0.007657
                                                         0.120000      -0.006949
                          1      11    5fx2z             3.103254      -4.921477
                                                         2.893835       5.439590
                                                         1.106151      -0.829742
                                                         0.501100      -0.396854
                                                         0.214447      -0.038265
                                                         0.140000       0.007657
                                                         0.120000      -0.006949
                          1      11    5fxy2             3.103254      -4.921477
                                                         2.893835       5.439590
                                                         1.106151      -0.829742
                                                         0.501100      -0.396854
                                                         0.214447      -0.038265
                                                         0.140000       0.007657
                                                         0.120000      -0.006949
                          1      11    5fxyz             3.103254      -8.524248
                                                         2.893835       9.421647
                                                         1.106151      -1.437155
                                                         0.501100      -0.687372
                                                         0.214447      -0.066277
                                                         0.140000       0.013263
                                                         0.120000      -0.012036
                          1      11    5fxz2             3.103254      -4.921477
                                                         2.893835       5.439590
                                                         1.106151      -0.829742
                                                         0.501100      -0.396854
                                                         0.214447      -0.038265
                                                         0.140000       0.007657
                                                         0.120000      -0.006949
                          1      11    5fy3              3.103254      -2.200951
                                                         2.893835       2.432659
                                                         1.106151      -0.371072
                                                         0.501100      -0.177479
                                                         0.214447      -0.017113
                                                         0.140000       0.003424
                                                         0.120000      -0.003108
                          1      11    5fy2z             3.103254      -4.921477
                                                         2.893835       5.439590
                                                         1.106151      -0.829742
                                                         0.501100      -0.396854
                                                         0.214447      -0.038265
                                                         0.140000       0.007657
                                                         0.120000      -0.006949
                          1      11    5fyz2             3.103254      -4.921477
                                                         2.893835       5.439590
                                                         1.106151      -0.829742
                                                         0.501100      -0.396854
                                                         0.214447      -0.038265
                                                         0.140000       0.007657
                                                         0.120000      -0.006949
                          1      11    5fz3              3.103254      -2.200951
                                                         2.893835       2.432659
                                                         1.106151      -0.371072
                                                         0.501100      -0.177479
                                                         0.214447      -0.017113
                                                         0.140000       0.003424
                                                         0.120000      -0.003108


     RI Auxiliary Basis Set                                                   RI

       Number of orbital shell sets:                                          16
       Number of orbital shells:                                              16
       Number of primitive Cartesian functions:                               16
       Number of Cartesian basis functions:                                   88
       Number of spherical basis functions:                                   66
       Norm type:                                                              2

       Normalised Cartesian orbitals:

                        Set   Shell   Orbital            Exponent    Coefficient

                          1       1    1s                0.240000       0.244382

                          2       1    1px               0.250000       0.251979
                          2       1    1py               0.250000       0.251979
                          2       1    1pz               0.250000       0.251979

                          3       1    1fx3              0.253210       0.066956
                          3       1    1fx2y             0.253210       0.149717
                          3       1    1fx2z             0.253210       0.149717
                          3       1    1fxy2             0.253210       0.149717
                          3       1    1fxyz             0.253210       0.259318
                          3       1    1fxz2             0.253210       0.149717
                          3       1    1fy3              0.253210       0.066956
                          3       1    1fy2z             0.253210       0.149717
                          3       1    1fyz2             0.253210       0.149717
                          3       1    1fz3              0.253210       0.066956

                          4       1    1dx2              0.304020       0.204875
                          4       1    1dxy              0.304020       0.354853
                          4       1    1dxz              0.304020       0.354853
                          4       1    1dy2              0.304020       0.204875
                          4       1    1dyz              0.304020       0.354853
                          4       1    1dz2              0.304020       0.204875

                          5       1    1gx4              0.365030       0.069637
                          5       1    1gx3y             0.365030       0.184242
                          5       1    1gx3z             0.365030       0.184242
                          5       1    1gx2y2            0.365030       0.237855
                          5       1    1gx2yz            0.365030       0.411977
                          5       1    1gx2z2            0.365030       0.237855
                          5       1    1gxy3             0.365030       0.184242
                          5       1    1gxy2z            0.365030       0.411977
                          5       1    1gxyz2            0.365030       0.411977
                          5       1    1gxz3             0.365030       0.184242
                          5       1    1gy4              0.365030       0.069637
                          5       1    1gy3z             0.365030       0.184242
                          5       1    1gy2z2            0.365030       0.237855
                          5       1    1gyz3             0.365030       0.184242
                          5       1    1gz4              0.365030       0.069637

                          6       1    1s                0.424630       0.374902

                          7       1    1s                0.648980       0.515328

                          8       1    1dx2              0.719090       0.924230
                          8       1    1dxy              0.719090       1.600814
                          8       1    1dxz              0.719090       1.600814
                          8       1    1dy2              0.719090       0.924230
                          8       1    1dyz              0.719090       1.600814
                          8       1    1dz2              0.719090       0.924230

                          9       1    1gx4              0.914480       0.870291
                          9       1    1gx3y             0.914480       2.302574
                          9       1    1gx3z             0.914480       2.302574
                          9       1    1gx2y2            0.914480       2.972610
                          9       1    1gx2yz            0.914480       5.148711
                          9       1    1gx2z2            0.914480       2.972610
                          9       1    1gxy3             0.914480       2.302574
                          9       1    1gxy2z            0.914480       5.148711
                          9       1    1gxyz2            0.914480       5.148711
                          9       1    1gxz3             0.914480       2.302574
                          9       1    1gy4              0.914480       0.870291
                          9       1    1gy3z             0.914480       2.302574
                          9       1    1gy2z2            0.914480       2.972610
                          9       1    1gyz3             0.914480       2.302574
                          9       1    1gz4              0.914480       0.870291

                         10       1    1px               0.967490       1.367723
                         10       1    1py               0.967490       1.367723
                         10       1    1pz               0.967490       1.367723

                         11       1    1dx2              1.179750       2.198072
                         11       1    1dxy              1.179750       3.807173
                         11       1    1dxz              1.179750       3.807173
                         11       1    1dy2              1.179750       2.198072
                         11       1    1dyz              1.179750       3.807173
                         11       1    1dz2              1.179750       2.198072

                         12       1    1fx3              1.281070       2.570357
                         12       1    1fx2y             1.281070       5.747492
                         12       1    1fx2z             1.281070       5.747492
                         12       1    1fxy2             1.281070       5.747492
                         12       1    1fxyz             1.281070       9.954948
                         12       1    1fxz2             1.281070       5.747492
                         12       1    1fy3              1.281070       2.570357
                         12       1    1fy2z             1.281070       5.747492
                         12       1    1fyz2             1.281070       5.747492
                         12       1    1fz3              1.281070       2.570357

                         13       1    1s                1.466370       0.949714

                         14       1    1px               1.939290       3.262072
                         14       1    1py               1.939290       3.262072
                         14       1    1pz               1.939290       3.262072

                         15       1    1s                2.101910       1.244144

                         16       1    1dx2              2.484170       8.090526
                         16       1    1dxy              2.484170      14.013202
                         16       1    1dxz              2.484170      14.013202
                         16       1    1dy2              2.484170       8.090526
                         16       1    1dyz              2.484170      14.013202
                         16       1    1dz2              2.484170       8.090526

       Atomic covalent radius [Angstrom]:                                  1.300

       Atomic van der Waals radius [Angstrom]:                             1.670

     GTH Potential information for                                  GTH-PADE-q14

       Description:                       Goedecker-Teter-Hutter pseudopotential
                                           Goedecker et al., PRB 54, 1703 (1996)
                                          Hartwigsen et al., PRB 58, 3641 (1998)
                                                      Krack, TCA 114, 145 (2005)

       Gaussian exponent of the core charge distribution:               1.714678
       Electronic configuration (s p d ...):                           4   6   4

       Parameters of the local part of the GTH pseudopotential:

                          rloc        C1          C2          C3          C4
                        0.540000    4.800251    0.901544

       Parameters of the non-local part of the GTH (SOC) pseudopotential:

                   l      r(l)      h(i,j,l)
                                    k(i,j,l)
                   0    0.418570    2.692204    2.332557    0.297239
                                    2.332557   -6.022638   -0.767467
                                    0.297239   -0.767467    1.218316
                   1    0.449555   -0.702084    1.036024    0.000000
                                    1.036024   -2.451680    0.000000
                                    0.000000    0.000000    0.000000
                                    0.715480    0.162835   -0.022919
                                    0.162835   -0.385339    0.054237
                                   -0.022919    0.054237   -0.077093
                   2    0.399602    1.177436    2.448917
                                    2.448917   -5.553621
                                    0.205860    0.044116
                                    0.044116   -0.100046

  2. Atomic kind: S                                     Number of atoms:     199

     Orbital Basis Set                                  TZVP-MOLOPT-GTH_upscaled

       Number of orbital shell sets:                                           1
       Number of orbital shells:                                               7
       Number of primitive Cartesian functions:                                7
       Number of Cartesian basis functions:                                   18
       Number of spherical basis functions:                                   17
       Norm type:                                                              2

       Normalised Cartesian orbitals:

                        Set   Shell   Orbital            Exponent    Coefficient

                          1       1    2s                3.817591       0.157267
                                                         2.362752      -0.510091
                                                         0.861004      -0.067546
                                                         0.417525       0.341513
                                                         0.181514       0.065074
                                                         0.140000      -0.001073
                                                         0.120000       0.001196

                          1       2    3s                3.817591      -0.191568
                                                         2.362752       0.523701
                                                         0.861004       0.282710
                                                         0.417525      -0.587888
                                                         0.181514       0.178884
                                                         0.140000      -0.487887
                                                         0.120000       0.543819

                          1       3    4s                3.817591      -0.991151
                                                         2.362752       1.865280
                                                         0.861004       0.135387
                                                         0.417525      -0.133451
                                                         0.181514       0.078400
                                                         0.140000       0.363817
                                                         0.120000      -0.405526

                          1       4    3px               3.817591      -0.172566
                                                         2.362752      -0.175790
                                                         0.861004       0.224449
                                                         0.417525       0.286658
                                                         0.181514       0.049751
                                                         0.140000      -0.014459
                                                         0.120000       0.014921
                          1       4    3py               3.817591      -0.172566
                                                         2.362752      -0.175790
                                                         0.861004       0.224449
                                                         0.417525       0.286658
                                                         0.181514       0.049751
                                                         0.140000      -0.014459
                                                         0.120000       0.014921
                          1       4    3pz               3.817591      -0.172566
                                                         2.362752      -0.175790
                                                         0.861004       0.224449
                                                         0.417525       0.286658
                                                         0.181514       0.049751
                                                         0.140000      -0.014459
                                                         0.120000       0.014921

                          1       5    4px               3.817591       0.010507
                                                         2.362752       0.217406
                                                         0.861004      -0.162395
                                                         0.417525      -0.206857
                                                         0.181514       0.107046
                                                         0.140000      -0.281393
                                                         0.120000       0.290385
                          1       5    4py               3.817591       0.010507
                                                         2.362752       0.217406
                                                         0.861004      -0.162395
                                                         0.417525      -0.206857
                                                         0.181514       0.107046
                                                         0.140000      -0.281393
                                                         0.120000       0.290385
                          1       5    4pz               3.817591       0.010507
                                                         2.362752       0.217406
                                                         0.861004      -0.162395
                                                         0.417525      -0.206857
                                                         0.181514       0.107046
                                                         0.140000      -0.281393
                                                         0.120000       0.290385

                          1       6    5px               3.817591      -0.947232
                                                         2.362752       1.731661
                                                         0.861004      -1.484366
                                                         0.417525       0.775915
                                                         0.181514       0.065997
                                                         0.140000       0.307740
                                                         0.120000      -0.317574
                          1       6    5py               3.817591      -0.947232
                                                         2.362752       1.731661
                                                         0.861004      -1.484366
                                                         0.417525       0.775915
                                                         0.181514       0.065997
                                                         0.140000       0.307740
                                                         0.120000      -0.317574
                          1       6    5pz               3.817591      -0.947232
                                                         2.362752       1.731661
                                                         0.861004      -1.484366
                                                         0.417525       0.775915
                                                         0.181514       0.065997
                                                         0.140000       0.307740
                                                         0.120000      -0.317574

                          1       7    4dx2              3.817591       0.133441
                                                         2.362752       0.805146
                                                         0.861004       0.452959
                                                         0.417525       0.174839
                                                         0.181514       0.017641
                                                         0.140000       0.004216
                                                         0.120000      -0.004028
                          1       7    4dxy              3.817591       0.231126
                                                         2.362752       1.394554
                                                         0.861004       0.784547
                                                         0.417525       0.302830
                                                         0.181514       0.030555
                                                         0.140000       0.007302
                                                         0.120000      -0.006976
                          1       7    4dxz              3.817591       0.231126
                                                         2.362752       1.394554
                                                         0.861004       0.784547
                                                         0.417525       0.302830
                                                         0.181514       0.030555
                                                         0.140000       0.007302
                                                         0.120000      -0.006976
                          1       7    4dy2              3.817591       0.133441
                                                         2.362752       0.805146
                                                         0.861004       0.452959
                                                         0.417525       0.174839
                                                         0.181514       0.017641
                                                         0.140000       0.004216
                                                         0.120000      -0.004028
                          1       7    4dyz              3.817591       0.231126
                                                         2.362752       1.394554
                                                         0.861004       0.784547
                                                         0.417525       0.302830
                                                         0.181514       0.030555
                                                         0.140000       0.007302
                                                         0.120000      -0.006976
                          1       7    4dz2              3.817591       0.133441
                                                         2.362752       0.805146
                                                         0.861004       0.452959
                                                         0.417525       0.174839
                                                         0.181514       0.017641
                                                         0.140000       0.004216
                                                         0.120000      -0.004028

     RI Auxiliary Basis Set                                                   RI

       Number of orbital shell sets:                                          12
       Number of orbital shells:                                              12
       Number of primitive Cartesian functions:                               12
       Number of Cartesian basis functions:                                   44
       Number of spherical basis functions:                                   38
       Norm type:                                                              2

       Normalised Cartesian orbitals:

                        Set   Shell   Orbital            Exponent    Coefficient

                          1       1    1s                0.250000       0.251979

                          2       1    1px               0.250000       0.251979
                          2       1    1py               0.250000       0.251979
                          2       1    1pz               0.250000       0.251979

                          3       1    1dx2              0.250000       0.145480
                          3       1    1dxy              0.250000       0.251979
                          3       1    1dxz              0.250000       0.251979
                          3       1    1dy2              0.250000       0.145480
                          3       1    1dyz              0.250000       0.251979
                          3       1    1dz2              0.250000       0.145480

                          4       1    1s                0.389135       0.351144

                          5       1    1dx2              0.603367       0.679871
                          5       1    1dxy              0.603367       1.177572
                          5       1    1dxz              0.603367       1.177572
                          5       1    1dy2              0.603367       0.679871
                          5       1    1dyz              0.603367       1.177572
                          5       1    1dz2              0.603367       0.679871

                          6       1    1px               0.631252       0.802035
                          6       1    1py               0.631252       0.802035
                          6       1    1pz               0.631252       0.802035

                          7       1    1fx3              0.711060       0.683508
                          7       1    1fx2y             0.711060       1.528371
                          7       1    1fx2z             0.711060       1.528371
                          7       1    1fxy2             0.711060       1.528371
                          7       1    1fxyz             0.711060       2.647216
                          7       1    1fxz2             0.711060       1.528371
                          7       1    1fy3              0.711060       0.683508
                          7       1    1fy2z             0.711060       1.528371
                          7       1    1fyz2             0.711060       1.528371
                          7       1    1fz3              0.711060       0.683508

                          8       1    1s                0.936032       0.678232

                          9       1    1dx2              1.115385       1.992520
                          9       1    1dxy              1.115385       3.451146
                          9       1    1dxz              1.115385       3.451146
                          9       1    1dy2              1.115385       1.992520
                          9       1    1dyz              1.115385       3.451146
                          9       1    1dz2              1.115385       1.992520

                         10       1    1px               1.173306       1.740620
                         10       1    1py               1.173306       1.740620
                         10       1    1pz               1.173306       1.740620

                         11       1    1s                2.064006       1.227279

                         12       1    1px               2.625789       4.764474
                         12       1    1py               2.625789       4.764474
                         12       1    1pz               2.625789       4.764474

       Atomic covalent radius [Angstrom]:                                  1.020

       Atomic van der Waals radius [Angstrom]:                             1.800

     GTH Potential information for                                   GTH-PADE-q6

       Description:                       Goedecker-Teter-Hutter pseudopotential
                                           Goedecker et al., PRB 54, 1703 (1996)
                                          Hartwigsen et al., PRB 58, 3641 (1998)
                                                      Krack, TCA 114, 145 (2005)

       Gaussian exponent of the core charge distribution:               2.834467
       Electronic configuration (s p d ...):                               2   4

       Parameters of the local part of the GTH pseudopotential:

                          rloc        C1          C2          C3          C4
                        0.420000   -6.554492

       Parameters of the non-local part of the GTH (SOC) pseudopotential:

                   l      r(l)      h(i,j,l)
                                    k(i,j,l)
                   0    0.361757    7.905303   -1.731881
                                   -1.731881    4.471698
                   1    0.405285    3.866579    0.000000
                                    0.000000    0.000000
                                    0.005372   -0.009323
                                   -0.009323    0.022062


 MOLECULE KIND INFORMATION


 All atoms are their own molecule, skipping detailed information


 TOTAL NUMBERS AND MAXIMUM NUMBERS

  Total number of            - Atomic kinds:                                   2
                             - Atoms:                                        299
                             - Shell sets:                                   299
                             - Shells:                                      2493
                             - Primitive Cartesian functions:               2093
                             - Cartesian basis functions:                   7682
                             - Spherical basis functions:                   6883

  Maximum angular momentum of- Orbital basis functions:                        3
                             - Local part of the GTH pseudopotential:          2
                             - Non-local part of the GTH pseudopotential:      5


 MODULE QUICKSTEP: ATOMIC COORDINATES IN ANGSTROM

   Atom Kind Element         X             Y             Z       Z(eff)     Mass
      1    1 W    74      0.000000      0.000000      7.072797  14.0000 183.8400
      2    2 S    16      1.592973      0.919703      5.500000   6.0000  32.0650
      3    1 W    74      3.186000      0.000000      7.072797  14.0000 183.8400
      4    2 S    16      4.778973      0.919703      8.645595   6.0000  32.0650
      5    2 S    16      4.778973      0.919703      5.500000   6.0000  32.0650
      6    1 W    74      6.372000      0.000000      7.072797  14.0000 183.8400
      7    2 S    16      7.964973      0.919703      8.645595   6.0000  32.0650
      8    2 S    16      7.964973      0.919703      5.500000   6.0000  32.0650
      9    1 W    74      9.558000      0.000000      7.072797  14.0000 183.8400
     10    2 S    16     11.150973      0.919703      8.645595   6.0000  32.0650
     11    2 S    16     11.150973      0.919703      5.500000   6.0000  32.0650
     12    1 W    74     12.744000      0.000000      7.072797  14.0000 183.8400
     13    2 S    16     14.336973      0.919703      8.645595   6.0000  32.0650
     14    2 S    16     14.336973      0.919703      5.500000   6.0000  32.0650
     15    1 W    74     15.930000      0.000000      7.072797  14.0000 183.8400
     16    2 S    16     17.522973      0.919703      8.645595   6.0000  32.0650
     17    2 S    16     17.522973      0.919703      5.500000   6.0000  32.0650
     18    1 W    74     19.116000      0.000000      7.072797  14.0000 183.8400
     19    2 S    16     20.708973      0.919703      8.645595   6.0000  32.0650
     20    2 S    16     20.708973      0.919703      5.500000   6.0000  32.0650
     21    1 W    74     22.302000      0.000000      7.072797  14.0000 183.8400
     22    2 S    16     23.894973      0.919703      8.645595   6.0000  32.0650
     23    2 S    16     23.894973      0.919703      5.500000   6.0000  32.0650
     24    1 W    74     25.488000      0.000000      7.072797  14.0000 183.8400
     25    2 S    16     27.080973      0.919703      8.645595   6.0000  32.0650
     26    2 S    16     27.080973      0.919703      5.500000   6.0000  32.0650
     27    1 W    74     28.674000      0.000000      7.072797  14.0000 183.8400
     28    2 S    16     30.266973      0.919703      8.645595   6.0000  32.0650
     29    2 S    16     30.266973      0.919703      5.500000   6.0000  32.0650
     30    1 W    74     -1.593000      2.759000      7.072797  14.0000 183.8400
     31    2 S    16     -0.000027      3.678703      8.645595   6.0000  32.0650
     32    2 S    16     -0.000027      3.678703      5.500000   6.0000  32.0650
     33    1 W    74      1.593000      2.759000      7.072797  14.0000 183.8400
     34    2 S    16      3.185973      3.678703      8.645595   6.0000  32.0650
     35    2 S    16      3.185973      3.678703      5.500000   6.0000  32.0650
     36    1 W    74      4.779000      2.759000      7.072797  14.0000 183.8400
     37    2 S    16      6.371973      3.678703      8.645595   6.0000  32.0650
     38    2 S    16      6.371973      3.678703      5.500000   6.0000  32.0650
     39    1 W    74      7.965000      2.759000      7.072797  14.0000 183.8400
     40    2 S    16      9.557973      3.678703      8.645595   6.0000  32.0650
     41    2 S    16      9.557973      3.678703      5.500000   6.0000  32.0650
     42    1 W    74     11.151000      2.759000      7.072797  14.0000 183.8400
     43    2 S    16     12.743973      3.678703      8.645595   6.0000  32.0650
     44    2 S    16     12.743973      3.678703      5.500000   6.0000  32.0650
     45    1 W    74     14.337000      2.759000      7.072797  14.0000 183.8400
     46    2 S    16     15.929973      3.678703      8.645595   6.0000  32.0650
     47    2 S    16     15.929973      3.678703      5.500000   6.0000  32.0650
     48    1 W    74     17.523000      2.759000      7.072797  14.0000 183.8400
     49    2 S    16     19.115973      3.678703      8.645595   6.0000  32.0650
     50    2 S    16     19.115973      3.678703      5.500000   6.0000  32.0650
     51    1 W    74     20.709000      2.759000      7.072797  14.0000 183.8400
     52    2 S    16     22.301973      3.678703      8.645595   6.0000  32.0650
     53    2 S    16     22.301973      3.678703      5.500000   6.0000  32.0650
     54    1 W    74     23.895000      2.759000      7.072797  14.0000 183.8400
     55    2 S    16     25.487973      3.678703      8.645595   6.0000  32.0650
     56    2 S    16     25.487973      3.678703      5.500000   6.0000  32.0650
     57    1 W    74     27.081000      2.759000      7.072797  14.0000 183.8400
     58    2 S    16     28.673973      3.678703      8.645595   6.0000  32.0650
     59    2 S    16     28.673973      3.678703      5.500000   6.0000  32.0650
     60    1 W    74     -3.186000      5.518000      7.072797  14.0000 183.8400
     61    2 S    16     -1.593027      6.437703      8.645595   6.0000  32.0650
     62    2 S    16     -1.593027      6.437703      5.500000   6.0000  32.0650
     63    1 W    74      0.000000      5.518000      7.072797  14.0000 183.8400
     64    2 S    16      1.592973      6.437703      8.645595   6.0000  32.0650
     65    2 S    16      1.592973      6.437703      5.500000   6.0000  32.0650
     66    1 W    74      3.186000      5.518000      7.072797  14.0000 183.8400
     67    2 S    16      4.778973      6.437703      8.645595   6.0000  32.0650
     68    2 S    16      4.778973      6.437703      5.500000   6.0000  32.0650
     69    1 W    74      6.372000      5.518000      7.072797  14.0000 183.8400
     70    2 S    16      7.964973      6.437703      8.645595   6.0000  32.0650
     71    2 S    16      7.964973      6.437703      5.500000   6.0000  32.0650
     72    1 W    74      9.558000      5.518000      7.072797  14.0000 183.8400
     73    2 S    16     11.150973      6.437703      8.645595   6.0000  32.0650
     74    2 S    16     11.150973      6.437703      5.500000   6.0000  32.0650
     75    1 W    74     12.744000      5.518000      7.072797  14.0000 183.8400
     76    2 S    16     14.336973      6.437703      8.645595   6.0000  32.0650
     77    2 S    16     14.336973      6.437703      5.500000   6.0000  32.0650
     78    1 W    74     15.930000      5.518000      7.072797  14.0000 183.8400
     79    2 S    16     17.522973      6.437703      8.645595   6.0000  32.0650
     80    2 S    16     17.522973      6.437703      5.500000   6.0000  32.0650
     81    1 W    74     19.116000      5.518000      7.072797  14.0000 183.8400
     82    2 S    16     20.708973      6.437703      8.645595   6.0000  32.0650
     83    2 S    16     20.708973      6.437703      5.500000   6.0000  32.0650
     84    1 W    74     22.302000      5.518000      7.072797  14.0000 183.8400
     85    2 S    16     23.894973      6.437703      8.645595   6.0000  32.0650
     86    2 S    16     23.894973      6.437703      5.500000   6.0000  32.0650
     87    1 W    74     25.488000      5.518000      7.072797  14.0000 183.8400
     88    2 S    16     27.080973      6.437703      8.645595   6.0000  32.0650
     89    2 S    16     27.080973      6.437703      5.500000   6.0000  32.0650
     90    1 W    74     -4.779000      8.277000      7.072797  14.0000 183.8400
     91    2 S    16     -3.186027      9.196703      8.645595   6.0000  32.0650
     92    2 S    16     -3.186027      9.196703      5.500000   6.0000  32.0650
     93    1 W    74     -1.593000      8.277000      7.072797  14.0000 183.8400
     94    2 S    16     -0.000027      9.196703      8.645595   6.0000  32.0650
     95    2 S    16     -0.000027      9.196703      5.500000   6.0000  32.0650
     96    1 W    74      1.593000      8.277000      7.072797  14.0000 183.8400
     97    2 S    16      3.185973      9.196703      8.645595   6.0000  32.0650
     98    2 S    16      3.185973      9.196703      5.500000   6.0000  32.0650
     99    1 W    74      4.779000      8.277000      7.072797  14.0000 183.8400
    100    2 S    16      6.371973      9.196703      8.645595   6.0000  32.0650
    101    2 S    16      6.371973      9.196703      5.500000   6.0000  32.0650
    102    1 W    74      7.965000      8.277000      7.072797  14.0000 183.8400
    103    2 S    16      9.557973      9.196703      8.645595   6.0000  32.0650
    104    2 S    16      9.557973      9.196703      5.500000   6.0000  32.0650
    105    1 W    74     11.151000      8.277000      7.072797  14.0000 183.8400
    106    2 S    16     12.743973      9.196703      8.645595   6.0000  32.0650
    107    2 S    16     12.743973      9.196703      5.500000   6.0000  32.0650
    108    1 W    74     14.337000      8.277000      7.072797  14.0000 183.8400
    109    2 S    16     15.929973      9.196703      8.645595   6.0000  32.0650
    110    2 S    16     15.929973      9.196703      5.500000   6.0000  32.0650
    111    1 W    74     17.523000      8.277000      7.072797  14.0000 183.8400
    112    2 S    16     19.115973      9.196703      8.645595   6.0000  32.0650
    113    2 S    16     19.115973      9.196703      5.500000   6.0000  32.0650
    114    1 W    74     20.709000      8.277000      7.072797  14.0000 183.8400
    115    2 S    16     22.301973      9.196703      8.645595   6.0000  32.0650
    116    2 S    16     22.301973      9.196703      5.500000   6.0000  32.0650
    117    1 W    74     23.895000      8.277000      7.072797  14.0000 183.8400
    118    2 S    16     25.487973      9.196703      8.645595   6.0000  32.0650
    119    2 S    16     25.487973      9.196703      5.500000   6.0000  32.0650
    120    1 W    74     -6.372000     11.036000      7.072797  14.0000 183.8400
    121    2 S    16     -4.779027     11.955703      8.645595   6.0000  32.0650
    122    2 S    16     -4.779027     11.955703      5.500000   6.0000  32.0650
    123    1 W    74     -3.186000     11.036000      7.072797  14.0000 183.8400
    124    2 S    16     -1.593027     11.955703      8.645595   6.0000  32.0650
    125    2 S    16     -1.593027     11.955703      5.500000   6.0000  32.0650
    126    1 W    74      0.000000     11.036000      7.072797  14.0000 183.8400
    127    2 S    16      1.592973     11.955703      8.645595   6.0000  32.0650
    128    2 S    16      1.592973     11.955703      5.500000   6.0000  32.0650
    129    1 W    74      3.186000     11.036000      7.072797  14.0000 183.8400
    130    2 S    16      4.778973     11.955703      8.645595   6.0000  32.0650
    131    2 S    16      4.778973     11.955703      5.500000   6.0000  32.0650
    132    1 W    74      6.372000     11.036000      7.072797  14.0000 183.8400
    133    2 S    16      7.964973     11.955703      8.645595   6.0000  32.0650
    134    2 S    16      7.964973     11.955703      5.500000   6.0000  32.0650
    135    1 W    74      9.558000     11.036000      7.072797  14.0000 183.8400
    136    2 S    16     11.150973     11.955703      8.645595   6.0000  32.0650
    137    2 S    16     11.150973     11.955703      5.500000   6.0000  32.0650
    138    1 W    74     12.744000     11.036000      7.072797  14.0000 183.8400
    139    2 S    16     14.336973     11.955703      8.645595   6.0000  32.0650
    140    2 S    16     14.336973     11.955703      5.500000   6.0000  32.0650
    141    1 W    74     15.930000     11.036000      7.072797  14.0000 183.8400
    142    2 S    16     17.522973     11.955703      8.645595   6.0000  32.0650
    143    2 S    16     17.522973     11.955703      5.500000   6.0000  32.0650
    144    1 W    74     19.116000     11.036000      7.072797  14.0000 183.8400
    145    2 S    16     20.708973     11.955703      8.645595   6.0000  32.0650
    146    2 S    16     20.708973     11.955703      5.500000   6.0000  32.0650
    147    1 W    74     22.302000     11.036000      7.072797  14.0000 183.8400
    148    2 S    16     23.894973     11.955703      8.645595   6.0000  32.0650
    149    2 S    16     23.894973     11.955703      5.500000   6.0000  32.0650
    150    1 W    74     -7.965000     13.795000      7.072797  14.0000 183.8400
    151    2 S    16     -6.372027     14.714703      8.645595   6.0000  32.0650
    152    2 S    16     -6.372027     14.714703      5.500000   6.0000  32.0650
    153    1 W    74     -4.779000     13.795000      7.072797  14.0000 183.8400
    154    2 S    16     -3.186027     14.714703      8.645595   6.0000  32.0650
    155    2 S    16     -3.186027     14.714703      5.500000   6.0000  32.0650
    156    1 W    74     -1.593000     13.795000      7.072797  14.0000 183.8400
    157    2 S    16     -0.000027     14.714703      8.645595   6.0000  32.0650
    158    2 S    16     -0.000027     14.714703      5.500000   6.0000  32.0650
    159    1 W    74      1.593000     13.795000      7.072797  14.0000 183.8400
    160    2 S    16      3.185973     14.714703      8.645595   6.0000  32.0650
    161    2 S    16      3.185973     14.714703      5.500000   6.0000  32.0650
    162    1 W    74      4.779000     13.795000      7.072797  14.0000 183.8400
    163    2 S    16      6.371973     14.714703      8.645595   6.0000  32.0650
[...]
 SCF conduction band minimum (eV):                                        -0.340
 SCF indirect band gap (eV):                                              -0.006
 SCF direct band gap (eV):                                                 0.023

 SCF+SOC valence band maximum (eV):                                       -0.222
 SCF+SOC conduction band minimum (eV):                                    -0.297
 SCF+SOC indirect band gap (eV):                                          -0.076
 SCF+SOC direct band gap (eV):                                             0.003

 G0W0 valence band maximum (eV):                                          -0.101
 G0W0 conduction band minimum (eV):                                       -0.032
 G0W0 indirect band gap (eV):                                              0.069
 G0W0 direct band gap (eV):                                                0.069

 ENERGY| Total FORCE_EVAL ( QS ) energy [a.u.]:            -8895.882985652413481

 -------------------------------------------------------------------------------
 -                                                                             -
 -                                DBCSR STATISTICS                             -
 -                                                                             -
 -------------------------------------------------------------------------------
 COUNTER                                    TOTAL       BLAS       SMM       ACC
 flops    17 x    17 x    17            389119426       0.0%    100.0%      0.0%
 flops    35 x    17 x    17            402577000       0.0%    100.0%      0.0%
 flops    17 x    17 x    35            402577000       0.0%    100.0%      0.0%
 flops    35 x    17 x    35            416500000       0.0%    100.0%      0.0%
 flops    17 x    16 x    17            732460096       0.0%    100.0%      0.0%
 flops    35 x    16 x    17            757792000       0.0%    100.0%      0.0%
 flops    17 x    16 x    35            757792000       0.0%    100.0%      0.0%
 flops    35 x    16 x    35            784000000       0.0%    100.0%      0.0%
 flops    17 x    17 x    48          34230547200       0.0%    100.0%      0.0%
 flops    17 x    17 x    49          34943683600       0.0%    100.0%      0.0%
 flops    35 x    17 x    48          35237328000       0.0%    100.0%      0.0%
 flops    17 x    35 x    48          35237328000       0.0%    100.0%      0.0%
 flops    35 x    17 x    49          35971439000       0.0%    100.0%      0.0%
 flops    17 x    35 x    49          35971439000       0.0%    100.0%      0.0%
 flops    35 x    35 x    48          36820560000       0.0%    100.0%      0.0%
 flops    35 x    35 x    49          37587655000       0.0%    100.0%      0.0%
 flops    17 x    32 x    17          87895211520       0.0%    100.0%      0.0%
 flops    35 x    32 x    17          90935040000       0.0%    100.0%      0.0%
 flops    17 x    32 x    35          90935040000       0.0%    100.0%      0.0%
 flops    35 x    32 x    35          94080000000       0.0%    100.0%      0.0%
 flops    17 x    17 x    64         730251673600       0.0%    100.0%      0.0%
 flops    35 x    17 x    64         751729664000       0.0%    100.0%      0.0%
 flops    17 x    35 x    64         751729664000       0.0%    100.0%      0.0%
 flops    35 x    35 x    64         785505280000       0.0%    100.0%      0.0%
 flops    17 x    17 x    32        1049736780800       0.0%    100.0%      0.0%
 flops    35 x    17 x    32        1080611392000       0.0%    100.0%      0.0%
 flops    17 x    35 x    32        1080611392000       0.0%    100.0%      0.0%
 flops    35 x    35 x    32        1129163840000       0.0%    100.0%      0.0%
 flops inhomo. stacks                           0       0.0%      0.0%      0.0%
 flops total                         8.013828E+12       0.0%    100.0%      0.0%
 flops max/rank                     19.921609E+09       0.0%    100.0%      0.0%
 matmuls inhomo. stacks                         0       0.0%      0.0%      0.0%
 matmuls total                          188961123       0.0%    100.0%      0.0%
 number of processed stacks              46561379       0.0%    100.0%      0.0%
 average stack size                                     0.0       4.1       0.0
 marketing flops                    15.601272E+12
 -------------------------------------------------------------------------------
 # multiplications                            127
 max memory usage/rank               1.367101E+09
 # max total images/rank                        2
 # max 3D layers                                1
 # MPI messages exchanged                 3966464
 MPI messages size (bytes):
  total size                       445.671080E+09
  min size                          34.816000E+03
  max size                         999.936000E+03
  average size                     112.359797E+03
 MPI breakdown and total messages size (bytes):
             size <=      128                   0                        0
       128 < size <=     8192                   0                        0
      8192 < size <=    32768                   0                        0
     32768 < size <=   131072             3364952             291733206296
    131072 < size <=  4194304              601512             153937739864
   4194304 < size <= 16777216                   0                        0
  16777216 < size                               0                        0
 -------------------------------------------------------------------------------

 *** WARNING in dbcsr_mm.F:291 :: Using a non-square number of MPI ranks ***
 *** might lead to poor performance. Used ranks: 512 Suggested: 529 1024 ***

 -------------------------------------------------------------------------------
 -                                                                             -
 -                      DBCSR MESSAGE PASSING PERFORMANCE                      -
 -                                                                             -
 -------------------------------------------------------------------------------
 ROUTINE             CALLS      AVE VOLUME [Bytes]
 MP_Bcast               29                     12.
 MP_Allreduce          948                      9.
 MP_Alltoall          9370                1560806.
 MP_ISend            16256                  56003.
 MP_IRecv            16256                  54359.
 -------------------------------------------------------------------------------

 -------------------------------------------------------------------------------
 -                                                                             -
 -                                DBM STATISTICS                               -
 -                                                                             -
 -------------------------------------------------------------------------------
    M  x    N  x    K                                          COUNT     PERCENT
   ??  x >999  x   ??                                     1625358020       0.84%
   ??  x  ???  x   ??                                    10160451158       5.25%
 >999  x   ??  x   ??                                    23022609053      11.89%
  ???  x   ??  x   ??                                    15885731734       8.20%
    ?  x    ?  x    ?                                    96819988141      50.00%
   ??  x   ??  x  ???                                    23667801168      12.22%
   ??  x   ??  x >999                                    22457144380      11.60%
 -------------------------------------------------------------------------------

 -------------------------------------------------------------------------------
 -                                                                             -
 -                                GRID STATISTICS                              -
 -                                                                             -
 -------------------------------------------------------------------------------
 LP    KERNEL             BACKEND                              COUNT     PERCENT
 4     collocate general  CPU                               86588704      22.18%
 4     integrate general  CPU                               86588704      22.18%
 5     collocate general  CPU                               86168592      22.07%
 5     integrate general  CPU                               86168592      22.07%
 6     collocate general  CPU                               22146400       5.67%
 6     integrate general  CPU                               22146400       5.67%
 0     collocate general  CPU                                 306176       0.08%
 0     integrate general  CPU                                 306176       0.08%
 -------------------------------------------------------------------------------

 MEMORY| Estimated peak process memory [MiB]                                5261

 -------------------------------------------------------------------------------
 -                                                                             -
 -                         MESSAGE PASSING PERFORMANCE                         -
 -                                                                             -
 -------------------------------------------------------------------------------

 ROUTINE             CALLS      AVE VOLUME [Bytes]
 MP_Group            39222
 MP_Bcast            29234                  13191.
 MP_Allreduce        66273                    323.
 MP_Sync             55109
 MP_Alltoall         22454
 MP_SendRecv        190092                  51520.
 MP_ISendRecv       190092                  51520.
 MP_Wait            236032
 MP_comm_split       26034
 MP_ISend          1482017                 280557.
 MP_IRecv          1523737                 273155.
 -------------------------------------------------------------------------------


 -------------------------------------------------------------------------------
 -                                                                             -
 -                           R E F E R E N C E S                               -
 -                                                                             -
 -------------------------------------------------------------------------------

 CP2K version 2023.2 (Development Version), the CP2K developers group (2023).
 CP2K is freely available from https://www.cp2k.org/ .

 Graml, Maximilian; Zollner, Klaus; Hernangmez-Prez, Daniel;
 Faria Junior, Paulo Eduardo; Wilhelm, Jan. arXiv, 2306.16066 (2023).
 Low-scaling GW algorithm applied to twisted transition-metal
 dichalcogenide heterobilayers.
 https://doi.org/10.48550/arXiv.2306.16066

 Kuehne,Thomas D.; Iannuzzi,Marcella; Del Ben,Mauro;
 Rybkin,Vladimir V.; Seewald,Patrick; Stein,Frederick; Laino,Teodoro;
 Khaliullin,Rustam Z.; Schuett,Ole; Schiffmann,Florian; Golze,Dorothea;
 Wilhelm,Jan; Chulkov,Sergey; Bani-Hashemian,Mohammad Hossein;
 Weber,Valery; Borstnik,Urban; Taillefumier,Mathieu;
 Jakobovits,Alice Shoshana; Lazzaro,Alfio; Pabst,Hans; Mueller,Tiziano;
 Schade,Robert; Guidon,Manuel; Andermatt,Samuel; Holmberg,Nico;
 Schenter,Gregory K.; Hehn,Anna; Bussy,Augustin; Belleflamme,Fabian;
 Tabacchi,Gloria; Gloess,Andreas; Lass,Michael; Bethune,Iain;
 Mundy,Christopher J.; Plessl,Christian; Watkins,Matt;
 VandeVondele,Joost; Krack,Matthias; Hutter,Juerg.
 The Journal of Chemical Physics, 152 (19), (2020).
 CP2K: An electronic structure and molecular dynamics software package -
 Quickstep: Efficient and accurate electronic structure calculations.
 https://doi.org/10.1063/5.0007045

 Schuett, Ole; Messmer, Peter; Hutter, Juerg; VandeVondele, Joost.
 Electronic Structure Calculations on Graphics Processing Units, John
 Wiley & Sons, Ltd, 173-190 (2016).
 GPU-Accelerated Sparse Matrix-Matrix Multiplication for
 Linear Scaling Density Functional Theory.
 https://doi.org/10.1002/9781118670712.ch8

 Heinecke, A; Henry, G; Hutchinson, M; Pabst, H.
 Proceedings of Intl. Supercomputing Conference, 981-991 (2016).
 LIBXSMM: Accelerating Small Matrix Multiplications
 by Runtime Code Generation.
 https://doi.org/10.1109/SC.2016.83

 Borstnik, U; VandeVondele, J; Weber, V; Hutter, J.
 PARALLEL COMPUTING, 40 (5-6), 47-58 (2014).
 Sparse matrix multiplication: The distributed block-compressed sparse
 row library.
 https://doi.org/10.1016/j.parco.2014.03.012

 Hutter, J; Iannuzzi, M; Schiffmann, F; VandeVondele, J.
 WIREs Comput Mol Sci., 4 (1), 15-25 (2014).
 CP2K: atomistic simulations of condensed matter systems.
 https://doi.org/10.1002/wcms.1159

 Marek, A; Blum, V; Johanni, R; Havu, V; Lang, B; Auckenthaler, T;
 Heinecke, A; Bungartz, H; Lederer, H.
 Journal of Physics: Condensed Matter, 26 (21), (2014).
 The ELPA library: scalable parallel eigenvalue solutions for
 electronic structure
 theory and computational science.
 https://doi.org/10.1088/0953-8984/26/21/213201

 VandeVondele, J; Hutter, J.
 JOURNAL OF CHEMICAL PHYSICS, 127 (11), 114105 (2007).
 Gaussian basis sets for accurate calculations on molecular systems in
 gas and condensed phases.
 https://doi.org/10.1063/1.2770708

 Krack, M.
 THEORETICAL CHEMISTRY ACCOUNTS, 114 (1-3), 145-152 (2005).
 Pseudopotentials for H to Kr optimized for gradient-corrected
 exchange-correlation functionals.
 https://doi.org/10.1007/s00214-005-0655-y

 VandeVondele, J; Krack, M; Mohamed, F; Parrinello, M; Chassaing, T;
 Hutter, J. COMPUTER PHYSICS COMMUNICATIONS, 167 (2), 103-128 (2005).
 QUICKSTEP: Fast and accurate density functional calculations using a
 mixed Gaussian and plane waves approach.
 https://doi.org/10.1016/j.cpc.2004.12.014

 Frigo, M; Johnson, SG.
 PROCEEDINGS OF THE IEEE, 93 (2), 216-231 (2005).
 The design and implementation of FFTW3.
 https://doi.org/10.1109/JPROC.2004.840301

 Hartwigsen, C; Goedecker, S; Hutter, J.
 PHYSICAL REVIEW B, 58 (7), 3641-3662 (1998).
 Relativistic separable dual-space Gaussian pseudopotentials from H to Rn.
 https://doi.org/10.1103/PhysRevB.58.3641

 Lippert, G; Hutter, J; Parrinello, M.
 MOLECULAR PHYSICS, 92 (3), 477-487 (1997).
 A hybrid Gaussian and plane wave density functional scheme.
 https://doi.org/10.1080/002689797170220

 Goedecker, S; Teter, M; Hutter, J.
 PHYSICAL REVIEW B, 54 (3), 1703-1710 (1996).
 Separable dual-space Gaussian pseudopotentials.
 https://doi.org/10.1103/PhysRevB.54.1703


 -------------------------------------------------------------------------------
 -                                                                             -
 -                                T I M I N G                                  -
 -                                                                             -
 -------------------------------------------------------------------------------
 SUBROUTINE                       CALLS  ASD         SELF TIME        TOTAL TIME
                                MAXIMUM       AVERAGE  MAXIMUM  AVERAGE  MAXIMUM
 CP2K                                 1  1.0     0.04     0.06 23263.67 23263.88
 qs_energies                          1  2.0     0.01     0.02 23261.41 23261.62
 qs_energies_properties               1  3.0     0.00     0.00 22856.03 22856.24
 post_scf_bandstructure               1  4.0     0.00     0.01 22856.02 22856.24
 gw                                   1  5.0     0.00     0.01 22747.21 22747.41
 dbt_total                         9416  8.2     0.08     0.10 12824.65 12825.08
 dbt_contract                      4320  9.0     0.27     0.39 11954.22 11956.72
 dbt_tas_multiply                  8640 11.5     0.02     0.02 11887.04 11887.73
 dbt_tas_total                     8640 12.5    67.47    86.64 11885.72 11886.43
 get_Sigma_c                          1  6.0     0.01     0.03 11109.65 11109.75
 contract_to_Sigma                  672  7.0     0.02     0.03  7904.71  7907.75
 mp_sync                          55109 11.9  6178.94  7355.54  6178.94  7355.54
 get_mat_chi_Gamma_tau                1  6.0     0.02     0.04  7317.74  7318.68
 dbt_tas_dbm                       8640 13.5     0.03     0.03  7088.18  7088.23
 compute_3c_integrals              3328  7.7     0.16     0.32  6371.32  6382.41
 dbm_multiply                      8640 15.5  5024.30  5545.75  5024.30  5545.75
 build_3c_integrals                3346  8.7  2052.15  3894.38  3116.12  4487.55
 compute_3c_and_contract_W          352  7.1     0.01     0.03  3918.04  3921.90
 get_W_MIC                            1  6.0     0.00     0.00  3437.29  3438.44
 compute_W_MIC                        1  7.0     0.00     0.00  3437.29  3438.44
 compute_fm_W_MIC_freq_j            260  8.0     0.01     0.27  3136.17  3136.47
 dbt_tas_mm_2                      1984 14.2     0.01     0.02  3098.64  3098.69
 dbm_redistribute                 25920 14.1  2412.70  2625.41  2412.70  2625.41
 cp_cfm_power                       286  9.0     0.26     0.51  2250.00  2254.11
 G_times_3c                        1280  7.0     0.06     0.11  2188.27  2191.19
 cp_cfm_heevd                       311  9.8  2134.29  2137.54  2134.29  2137.54
 convert_to_new_pgrid             25920 13.5   249.61   356.61  1577.77  1717.43
 libxsmm_abc_contract           6266943  9.6   853.96  1535.45   853.96  1535.45
 dbt_tas_mm_3T                     2688 14.5     0.01     0.01   970.54  1216.78
 dbt_tas_mm_3N                     1408 14.6     0.00     0.00   908.54  1035.33
 compute_cfm_W_ikp_freq_j           260  9.0     0.02     0.02  1026.52  1026.80
 dbt_tas_mm_1N                     2560 14.5     0.00     0.01   882.86  1011.56
 parallel_gemm_cfm                 1852  9.7     0.00     0.01   970.15   975.90
 parallel_gemm_cfm_cosma           1852 10.7   970.15   975.89   970.15   975.89
 mp_sum_l                         46931 13.5   630.53   752.38   630.53   752.38
 get_Sigma_x                          1  6.0     0.00     0.00   737.64   738.11
 compute_Sigma_x                      1  7.0     0.00     0.01   737.64   738.11
 mp_waitall_2                     37570 16.4   584.10   695.51   584.10   695.51
 dbt_copy                          5096  9.3     0.15     0.22   537.11   642.26
 dbt_reshape                       1448  9.8   116.56   137.83   439.45   536.79
 dbt_tas_communicate_buffer       17285 15.8     1.04     1.14   431.76   462.34
 scf_env_do_scf                       1  3.0     0.00     0.01   398.28   398.32
 scf_env_do_scf_inner_loop           61  4.0     0.02     0.04   398.27   398.32
 dbt_communicate_buffer            1448 10.8     0.05     0.10   298.45   395.50
 dbt_tas_replicate                 8640 13.5    19.56    22.21   252.38   277.19
 mp_isend_dv                     853410 16.5   144.42   264.57   144.42   264.57
 compute_MinvVsqrt_Vsqrt             26  8.0     0.05     0.07   261.40   261.53
 dbm_reserve_blocks               39120 14.9   207.16   251.07   207.16   251.07
 dbt_tas_merge                     1984 13.2    12.71    14.02   238.37   248.27
 cp_cfm_cholesky_invert             286  9.9   245.53   245.78   245.53   245.78
 dbt_tas_reserve_blocks_index     30480 14.0     0.40     0.45   201.13   244.91
 dbt_tas_replicate_communicate_    6656 14.5     0.16     0.20   210.61   235.86
 -------------------------------------------------------------------------------

 The number of warnings for this run is : 2

 -------------------------------------------------------------------------------
  **** **** ******  **  PROGRAM ENDED AT                 2023-11-23 16:12:06.733
 ***** ** ***  *** **   PROGRAM RAN ON                                  n2cn0302
 **    ****   ******    PROGRAM RAN BY                                  eprop2d1
 ***** **    ** ** **   PROGRAM PROCESS ID                                 17488
  **** **  *******  **  PROGRAM STOPPED IN /scratch/hpc-prf-eprop2d/eprop2d1_Jan
                                           /17_open_shell/5_WS2_charged_vacancy/
                                           3_neg_charged_S_vacancy_WS2_10x10
